t 3.93657 /NodeList/22/DeviceList/1/$ns3::WifiNetDevice/Phy/State/Tx ns3::WifiMacHeader (DATA ToDS=0, FromDS=0, MoreFrag=0, Retry=0, MoreData=0 Duration/ID=0us, DA=ff:ff:ff:ff:ff:ff, SA=00:00:00:00:00:03, BSSID=00:00:00:00:00:03, FragNumber=0, SeqNumber=0) ns3::LlcSnapHeader (type 0x800) ns3::Ipv4Header (tos 0x0 DSCP Default ECN Not-ECT ttl 19 id 0 protocol 17 offset (bytes) 0 flags [none] length: 52 10.1.2.3 > 10.1.2.255) ns3::UdpHeader (length: 32 654 > 654) ns3::aodv::TypeHeader (RREQ) ns3::aodv::RreqHeader (RREQ ID 1 destination: ipv4 10.1.1.7 sequence number 0 source: ipv4 10.1.1.4 sequence number 1 flags: Gratuitous RREP 1 Destination only 0 Unknown sequence number 1) ns3::WifiMacTrailer ()
r 3.93672 /NodeList/27/DeviceList/1/$ns3::WifiNetDevice/Phy/State/RxOk ns3::WifiMacHeader (DATA ToDS=0, FromDS=0, MoreFrag=0, Retry=0, MoreData=0 Duration/ID=0us, DA=ff:ff:ff:ff:ff:ff, SA=00:00:00:00:00:03, BSSID=00:00:00:00:00:03, FragNumber=0, SeqNumber=0) ns3::LlcSnapHeader (type 0x800) ns3::Ipv4Header (tos 0x0 DSCP Default ECN Not-ECT ttl 19 id 0 protocol 17 offset (bytes) 0 flags [none] length: 52 10.1.2.3 > 10.1.2.255) ns3::UdpHeader (length: 32 654 > 654) ns3::aodv::TypeHeader (RREQ) ns3::aodv::RreqHeader (RREQ ID 1 destination: ipv4 10.1.1.7 sequence number 0 source: ipv4 10.1.1.4 sequence number 1 flags: Gratuitous RREP 1 Destination only 0 Unknown sequence number 1) ns3::WifiMacTrailer ()
r 3.93672 /NodeList/25/DeviceList/1/$ns3::WifiNetDevice/Phy/State/RxOk ns3::WifiMacHeader (DATA ToDS=0, FromDS=0, MoreFrag=0, Retry=0, MoreData=0 Duration/ID=0us, DA=ff:ff:ff:ff:ff:ff, SA=00:00:00:00:00:03, BSSID=00:00:00:00:00:03, FragNumber=0, SeqNumber=0) ns3::LlcSnapHeader (type 0x800) ns3::Ipv4Header (tos 0x0 DSCP Default ECN Not-ECT ttl 19 id 0 protocol 17 offset (bytes) 0 flags [none] length: 52 10.1.2.3 > 10.1.2.255) ns3::UdpHeader (length: 32 654 > 654) ns3::aodv::TypeHeader (RREQ) ns3::aodv::RreqHeader (RREQ ID 1 destination: ipv4 10.1.1.7 sequence number 0 source: ipv4 10.1.1.4 sequence number 1 flags: Gratuitous RREP 1 Destination only 0 Unknown sequence number 1) ns3::WifiMacTrailer ()
r 3.93672 /NodeList/21/DeviceList/1/$ns3::WifiNetDevice/Phy/State/RxOk ns3::WifiMacHeader (DATA ToDS=0, FromDS=0, MoreFrag=0, Retry=0, MoreData=0 Duration/ID=0us, DA=ff:ff:ff:ff:ff:ff, SA=00:00:00:00:00:03, BSSID=00:00:00:00:00:03, FragNumber=0, SeqNumber=0) ns3::LlcSnapHeader (type 0x800) ns3::Ipv4Header (tos 0x0 DSCP Default ECN Not-ECT ttl 19 id 0 protocol 17 offset (bytes) 0 flags [none] length: 52 10.1.2.3 > 10.1.2.255) ns3::UdpHeader (length: 32 654 > 654) ns3::aodv::TypeHeader (RREQ) ns3::aodv::RreqHeader (RREQ ID 1 destination: ipv4 10.1.1.7 sequence number 0 source: ipv4 10.1.1.4 sequence number 1 flags: Gratuitous RREP 1 Destination only 0 Unknown sequence number 1) ns3::WifiMacTrailer ()
r 3.93672 /NodeList/24/DeviceList/1/$ns3::WifiNetDevice/Phy/State/RxOk ns3::WifiMacHeader (DATA ToDS=0, FromDS=0, MoreFrag=0, Retry=0, MoreData=0 Duration/ID=0us, DA=ff:ff:ff:ff:ff:ff, SA=00:00:00:00:00:03, BSSID=00:00:00:00:00:03, FragNumber=0, SeqNumber=0) ns3::LlcSnapHeader (type 0x800) ns3::Ipv4Header (tos 0x0 DSCP Default ECN Not-ECT ttl 19 id 0 protocol 17 offset (bytes) 0 flags [none] length: 52 10.1.2.3 > 10.1.2.255) ns3::UdpHeader (length: 32 654 > 654) ns3::aodv::TypeHeader (RREQ) ns3::aodv::RreqHeader (RREQ ID 1 destination: ipv4 10.1.1.7 sequence number 0 source: ipv4 10.1.1.4 sequence number 1 flags: Gratuitous RREP 1 Destination only 0 Unknown sequence number 1) ns3::WifiMacTrailer ()
r 3.93673 /NodeList/26/DeviceList/1/$ns3::WifiNetDevice/Phy/State/RxOk ns3::WifiMacHeader (DATA ToDS=0, FromDS=0, MoreFrag=0, Retry=0, MoreData=0 Duration/ID=0us, DA=ff:ff:ff:ff:ff:ff, SA=00:00:00:00:00:03, BSSID=00:00:00:00:00:03, FragNumber=0, SeqNumber=0) ns3::LlcSnapHeader (type 0x800) ns3::Ipv4Header (tos 0x0 DSCP Default ECN Not-ECT ttl 19 id 0 protocol 17 offset (bytes) 0 flags [none] length: 52 10.1.2.3 > 10.1.2.255) ns3::UdpHeader (length: 32 654 > 654) ns3::aodv::TypeHeader (RREQ) ns3::aodv::RreqHeader (RREQ ID 1 destination: ipv4 10.1.1.7 sequence number 0 source: ipv4 10.1.1.4 sequence number 1 flags: Gratuitous RREP 1 Destination only 0 Unknown sequence number 1) ns3::WifiMacTrailer ()
r 3.93673 /NodeList/20/DeviceList/1/$ns3::WifiNetDevice/Phy/State/RxOk ns3::WifiMacHeader (DATA ToDS=0, FromDS=0, MoreFrag=0, Retry=0, MoreData=0 Duration/ID=0us, DA=ff:ff:ff:ff:ff:ff, SA=00:00:00:00:00:03, BSSID=00:00:00:00:00:03, FragNumber=0, SeqNumber=0) ns3::LlcSnapHeader (type 0x800) ns3::Ipv4Header (tos 0x0 DSCP Default ECN Not-ECT ttl 19 id 0 protocol 17 offset (bytes) 0 flags [none] length: 52 10.1.2.3 > 10.1.2.255) ns3::UdpHeader (length: 32 654 > 654) ns3::aodv::TypeHeader (RREQ) ns3::aodv::RreqHeader (RREQ ID 1 destination: ipv4 10.1.1.7 sequence number 0 source: ipv4 10.1.1.4 sequence number 1 flags: Gratuitous RREP 1 Destination only 0 Unknown sequence number 1) ns3::WifiMacTrailer ()
r 3.93674 /NodeList/23/DeviceList/1/$ns3::WifiNetDevice/Phy/State/RxOk ns3::WifiMacHeader (DATA ToDS=0, FromDS=0, MoreFrag=0, Retry=0, MoreData=0 Duration/ID=0us, DA=ff:ff:ff:ff:ff:ff, SA=00:00:00:00:00:03, BSSID=00:00:00:00:00:03, FragNumber=0, SeqNumber=0) ns3::LlcSnapHeader (type 0x800) ns3::Ipv4Header (tos 0x0 DSCP Default ECN Not-ECT ttl 19 id 0 protocol 17 offset (bytes) 0 flags [none] length: 52 10.1.2.3 > 10.1.2.255) ns3::UdpHeader (length: 32 654 > 654) ns3::aodv::TypeHeader (RREQ) ns3::aodv::RreqHeader (RREQ ID 1 destination: ipv4 10.1.1.7 sequence number 0 source: ipv4 10.1.1.4 sequence number 1 flags: Gratuitous RREP 1 Destination only 0 Unknown sequence number 1) ns3::WifiMacTrailer ()
t 3.93774 /NodeList/23/DeviceList/1/$ns3::WifiNetDevice/Phy/State/Tx ns3::WifiMacHeader (DATA ToDS=0, FromDS=0, MoreFrag=0, Retry=0, MoreData=0 Duration/ID=0us, DA=ff:ff:ff:ff:ff:ff, SA=00:00:00:00:00:04, BSSID=00:00:00:00:00:04, FragNumber=0, SeqNumber=0) ns3::LlcSnapHeader (type 0x800) ns3::Ipv4Header (tos 0x0 DSCP Default ECN Not-ECT ttl 18 id 0 protocol 17 offset (bytes) 0 flags [none] length: 52 10.1.2.4 > 10.1.2.255) ns3::UdpHeader (length: 32 654 > 654) ns3::aodv::TypeHeader (RREQ) ns3::aodv::RreqHeader (RREQ ID 1 destination: ipv4 10.1.1.7 sequence number 0 source: ipv4 10.1.1.4 sequence number 1 flags: Gratuitous RREP 1 Destination only 0 Unknown sequence number 1) ns3::WifiMacTrailer ()
r 3.93789 /NodeList/26/DeviceList/1/$ns3::WifiNetDevice/Phy/State/RxOk ns3::WifiMacHeader (DATA ToDS=0, FromDS=0, MoreFrag=0, Retry=0, MoreData=0 Duration/ID=0us, DA=ff:ff:ff:ff:ff:ff, SA=00:00:00:00:00:04, BSSID=00:00:00:00:00:04, FragNumber=0, SeqNumber=0) ns3::LlcSnapHeader (type 0x800) ns3::Ipv4Header (tos 0x0 DSCP Default ECN Not-ECT ttl 18 id 0 protocol 17 offset (bytes) 0 flags [none] length: 52 10.1.2.4 > 10.1.2.255) ns3::UdpHeader (length: 32 654 > 654) ns3::aodv::TypeHeader (RREQ) ns3::aodv::RreqHeader (RREQ ID 1 destination: ipv4 10.1.1.7 sequence number 0 source: ipv4 10.1.1.4 sequence number 1 flags: Gratuitous RREP 1 Destination only 0 Unknown sequence number 1) ns3::WifiMacTrailer ()
r 3.93789 /NodeList/20/DeviceList/1/$ns3::WifiNetDevice/Phy/State/RxOk ns3::WifiMacHeader (DATA ToDS=0, FromDS=0, MoreFrag=0, Retry=0, MoreData=0 Duration/ID=0us, DA=ff:ff:ff:ff:ff:ff, SA=00:00:00:00:00:04, BSSID=00:00:00:00:00:04, FragNumber=0, SeqNumber=0) ns3::LlcSnapHeader (type 0x800) ns3::Ipv4Header (tos 0x0 DSCP Default ECN Not-ECT ttl 18 id 0 protocol 17 offset (bytes) 0 flags [none] length: 52 10.1.2.4 > 10.1.2.255) ns3::UdpHeader (length: 32 654 > 654) ns3::aodv::TypeHeader (RREQ) ns3::aodv::RreqHeader (RREQ ID 1 destination: ipv4 10.1.1.7 sequence number 0 source: ipv4 10.1.1.4 sequence number 1 flags: Gratuitous RREP 1 Destination only 0 Unknown sequence number 1) ns3::WifiMacTrailer ()
r 3.93789 /NodeList/24/DeviceList/1/$ns3::WifiNetDevice/Phy/State/RxOk ns3::WifiMacHeader (DATA ToDS=0, FromDS=0, MoreFrag=0, Retry=0, MoreData=0 Duration/ID=0us, DA=ff:ff:ff:ff:ff:ff, SA=00:00:00:00:00:04, BSSID=00:00:00:00:00:04, FragNumber=0, SeqNumber=0) ns3::LlcSnapHeader (type 0x800) ns3::Ipv4Header (tos 0x0 DSCP Default ECN Not-ECT ttl 18 id 0 protocol 17 offset (bytes) 0 flags [none] length: 52 10.1.2.4 > 10.1.2.255) ns3::UdpHeader (length: 32 654 > 654) ns3::aodv::TypeHeader (RREQ) ns3::aodv::RreqHeader (RREQ ID 1 destination: ipv4 10.1.1.7 sequence number 0 source: ipv4 10.1.1.4 sequence number 1 flags: Gratuitous RREP 1 Destination only 0 Unknown sequence number 1) ns3::WifiMacTrailer ()
r 3.9379 /NodeList/21/DeviceList/1/$ns3::WifiNetDevice/Phy/State/RxOk ns3::WifiMacHeader (DATA ToDS=0, FromDS=0, MoreFrag=0, Retry=0, MoreData=0 Duration/ID=0us, DA=ff:ff:ff:ff:ff:ff, SA=00:00:00:00:00:04, BSSID=00:00:00:00:00:04, FragNumber=0, SeqNumber=0) ns3::LlcSnapHeader (type 0x800) ns3::Ipv4Header (tos 0x0 DSCP Default ECN Not-ECT ttl 18 id 0 protocol 17 offset (bytes) 0 flags [none] length: 52 10.1.2.4 > 10.1.2.255) ns3::UdpHeader (length: 32 654 > 654) ns3::aodv::TypeHeader (RREQ) ns3::aodv::RreqHeader (RREQ ID 1 destination: ipv4 10.1.1.7 sequence number 0 source: ipv4 10.1.1.4 sequence number 1 flags: Gratuitous RREP 1 Destination only 0 Unknown sequence number 1) ns3::WifiMacTrailer ()
r 3.9379 /NodeList/27/DeviceList/1/$ns3::WifiNetDevice/Phy/State/RxOk ns3::WifiMacHeader (DATA ToDS=0, FromDS=0, MoreFrag=0, Retry=0, MoreData=0 Duration/ID=0us, DA=ff:ff:ff:ff:ff:ff, SA=00:00:00:00:00:04, BSSID=00:00:00:00:00:04, FragNumber=0, SeqNumber=0) ns3::LlcSnapHeader (type 0x800) ns3::Ipv4Header (tos 0x0 DSCP Default ECN Not-ECT ttl 18 id 0 protocol 17 offset (bytes) 0 flags [none] length: 52 10.1.2.4 > 10.1.2.255) ns3::UdpHeader (length: 32 654 > 654) ns3::aodv::TypeHeader (RREQ) ns3::aodv::RreqHeader (RREQ ID 1 destination: ipv4 10.1.1.7 sequence number 0 source: ipv4 10.1.1.4 sequence number 1 flags: Gratuitous RREP 1 Destination only 0 Unknown sequence number 1) ns3::WifiMacTrailer ()
r 3.93791 /NodeList/25/DeviceList/1/$ns3::WifiNetDevice/Phy/State/RxOk ns3::WifiMacHeader (DATA ToDS=0, FromDS=0, MoreFrag=0, Retry=0, MoreData=0 Duration/ID=0us, DA=ff:ff:ff:ff:ff:ff, SA=00:00:00:00:00:04, BSSID=00:00:00:00:00:04, FragNumber=0, SeqNumber=0) ns3::LlcSnapHeader (type 0x800) ns3::Ipv4Header (tos 0x0 DSCP Default ECN Not-ECT ttl 18 id 0 protocol 17 offset (bytes) 0 flags [none] length: 52 10.1.2.4 > 10.1.2.255) ns3::UdpHeader (length: 32 654 > 654) ns3::aodv::TypeHeader (RREQ) ns3::aodv::RreqHeader (RREQ ID 1 destination: ipv4 10.1.1.7 sequence number 0 source: ipv4 10.1.1.4 sequence number 1 flags: Gratuitous RREP 1 Destination only 0 Unknown sequence number 1) ns3::WifiMacTrailer ()
r 3.93791 /NodeList/22/DeviceList/1/$ns3::WifiNetDevice/Phy/State/RxOk ns3::WifiMacHeader (DATA ToDS=0, FromDS=0, MoreFrag=0, Retry=0, MoreData=0 Duration/ID=0us, DA=ff:ff:ff:ff:ff:ff, SA=00:00:00:00:00:04, BSSID=00:00:00:00:00:04, FragNumber=0, SeqNumber=0) ns3::LlcSnapHeader (type 0x800) ns3::Ipv4Header (tos 0x0 DSCP Default ECN Not-ECT ttl 18 id 0 protocol 17 offset (bytes) 0 flags [none] length: 52 10.1.2.4 > 10.1.2.255) ns3::UdpHeader (length: 32 654 > 654) ns3::aodv::TypeHeader (RREQ) ns3::aodv::RreqHeader (RREQ ID 1 destination: ipv4 10.1.1.7 sequence number 0 source: ipv4 10.1.1.4 sequence number 1 flags: Gratuitous RREP 1 Destination only 0 Unknown sequence number 1) ns3::WifiMacTrailer ()
t 3.93872 /NodeList/27/DeviceList/1/$ns3::WifiNetDevice/Phy/State/Tx ns3::WifiMacHeader (DATA ToDS=0, FromDS=0, MoreFrag=0, Retry=0, MoreData=0 Duration/ID=0us, DA=ff:ff:ff:ff:ff:ff, SA=00:00:00:00:00:08, BSSID=00:00:00:00:00:08, FragNumber=0, SeqNumber=0) ns3::LlcSnapHeader (type 0x800) ns3::Ipv4Header (tos 0x0 DSCP Default ECN Not-ECT ttl 18 id 0 protocol 17 offset (bytes) 0 flags [none] length: 52 10.1.2.8 > 10.1.2.255) ns3::UdpHeader (length: 32 654 > 654) ns3::aodv::TypeHeader (RREQ) ns3::aodv::RreqHeader (RREQ ID 1 destination: ipv4 10.1.1.7 sequence number 0 source: ipv4 10.1.1.4 sequence number 1 flags: Gratuitous RREP 1 Destination only 0 Unknown sequence number 1) ns3::WifiMacTrailer ()
r 3.93887 /NodeList/21/DeviceList/1/$ns3::WifiNetDevice/Phy/State/RxOk ns3::WifiMacHeader (DATA ToDS=0, FromDS=0, MoreFrag=0, Retry=0, MoreData=0 Duration/ID=0us, DA=ff:ff:ff:ff:ff:ff, SA=00:00:00:00:00:08, BSSID=00:00:00:00:00:08, FragNumber=0, SeqNumber=0) ns3::LlcSnapHeader (type 0x800) ns3::Ipv4Header (tos 0x0 DSCP Default ECN Not-ECT ttl 18 id 0 protocol 17 offset (bytes) 0 flags [none] length: 52 10.1.2.8 > 10.1.2.255) ns3::UdpHeader (length: 32 654 > 654) ns3::aodv::TypeHeader (RREQ) ns3::aodv::RreqHeader (RREQ ID 1 destination: ipv4 10.1.1.7 sequence number 0 source: ipv4 10.1.1.4 sequence number 1 flags: Gratuitous RREP 1 Destination only 0 Unknown sequence number 1) ns3::WifiMacTrailer ()
r 3.93887 /NodeList/22/DeviceList/1/$ns3::WifiNetDevice/Phy/State/RxOk ns3::WifiMacHeader (DATA ToDS=0, FromDS=0, MoreFrag=0, Retry=0, MoreData=0 Duration/ID=0us, DA=ff:ff:ff:ff:ff:ff, SA=00:00:00:00:00:08, BSSID=00:00:00:00:00:08, FragNumber=0, SeqNumber=0) ns3::LlcSnapHeader (type 0x800) ns3::Ipv4Header (tos 0x0 DSCP Default ECN Not-ECT ttl 18 id 0 protocol 17 offset (bytes) 0 flags [none] length: 52 10.1.2.8 > 10.1.2.255) ns3::UdpHeader (length: 32 654 > 654) ns3::aodv::TypeHeader (RREQ) ns3::aodv::RreqHeader (RREQ ID 1 destination: ipv4 10.1.1.7 sequence number 0 source: ipv4 10.1.1.4 sequence number 1 flags: Gratuitous RREP 1 Destination only 0 Unknown sequence number 1) ns3::WifiMacTrailer ()
r 3.93887 /NodeList/24/DeviceList/1/$ns3::WifiNetDevice/Phy/State/RxOk ns3::WifiMacHeader (DATA ToDS=0, FromDS=0, MoreFrag=0, Retry=0, MoreData=0 Duration/ID=0us, DA=ff:ff:ff:ff:ff:ff, SA=00:00:00:00:00:08, BSSID=00:00:00:00:00:08, FragNumber=0, SeqNumber=0) ns3::LlcSnapHeader (type 0x800) ns3::Ipv4Header (tos 0x0 DSCP Default ECN Not-ECT ttl 18 id 0 protocol 17 offset (bytes) 0 flags [none] length: 52 10.1.2.8 > 10.1.2.255) ns3::UdpHeader (length: 32 654 > 654) ns3::aodv::TypeHeader (RREQ) ns3::aodv::RreqHeader (RREQ ID 1 destination: ipv4 10.1.1.7 sequence number 0 source: ipv4 10.1.1.4 sequence number 1 flags: Gratuitous RREP 1 Destination only 0 Unknown sequence number 1) ns3::WifiMacTrailer ()
r 3.93887 /NodeList/25/DeviceList/1/$ns3::WifiNetDevice/Phy/State/RxOk ns3::WifiMacHeader (DATA ToDS=0, FromDS=0, MoreFrag=0, Retry=0, MoreData=0 Duration/ID=0us, DA=ff:ff:ff:ff:ff:ff, SA=00:00:00:00:00:08, BSSID=00:00:00:00:00:08, FragNumber=0, SeqNumber=0) ns3::LlcSnapHeader (type 0x800) ns3::Ipv4Header (tos 0x0 DSCP Default ECN Not-ECT ttl 18 id 0 protocol 17 offset (bytes) 0 flags [none] length: 52 10.1.2.8 > 10.1.2.255) ns3::UdpHeader (length: 32 654 > 654) ns3::aodv::TypeHeader (RREQ) ns3::aodv::RreqHeader (RREQ ID 1 destination: ipv4 10.1.1.7 sequence number 0 source: ipv4 10.1.1.4 sequence number 1 flags: Gratuitous RREP 1 Destination only 0 Unknown sequence number 1) ns3::WifiMacTrailer ()
r 3.93887 /NodeList/26/DeviceList/1/$ns3::WifiNetDevice/Phy/State/RxOk ns3::WifiMacHeader (DATA ToDS=0, FromDS=0, MoreFrag=0, Retry=0, MoreData=0 Duration/ID=0us, DA=ff:ff:ff:ff:ff:ff, SA=00:00:00:00:00:08, BSSID=00:00:00:00:00:08, FragNumber=0, SeqNumber=0) ns3::LlcSnapHeader (type 0x800) ns3::Ipv4Header (tos 0x0 DSCP Default ECN Not-ECT ttl 18 id 0 protocol 17 offset (bytes) 0 flags [none] length: 52 10.1.2.8 > 10.1.2.255) ns3::UdpHeader (length: 32 654 > 654) ns3::aodv::TypeHeader (RREQ) ns3::aodv::RreqHeader (RREQ ID 1 destination: ipv4 10.1.1.7 sequence number 0 source: ipv4 10.1.1.4 sequence number 1 flags: Gratuitous RREP 1 Destination only 0 Unknown sequence number 1) ns3::WifiMacTrailer ()
r 3.93888 /NodeList/20/DeviceList/1/$ns3::WifiNetDevice/Phy/State/RxOk ns3::WifiMacHeader (DATA ToDS=0, FromDS=0, MoreFrag=0, Retry=0, MoreData=0 Duration/ID=0us, DA=ff:ff:ff:ff:ff:ff, SA=00:00:00:00:00:08, BSSID=00:00:00:00:00:08, FragNumber=0, SeqNumber=0) ns3::LlcSnapHeader (type 0x800) ns3::Ipv4Header (tos 0x0 DSCP Default ECN Not-ECT ttl 18 id 0 protocol 17 offset (bytes) 0 flags [none] length: 52 10.1.2.8 > 10.1.2.255) ns3::UdpHeader (length: 32 654 > 654) ns3::aodv::TypeHeader (RREQ) ns3::aodv::RreqHeader (RREQ ID 1 destination: ipv4 10.1.1.7 sequence number 0 source: ipv4 10.1.1.4 sequence number 1 flags: Gratuitous RREP 1 Destination only 0 Unknown sequence number 1) ns3::WifiMacTrailer ()
r 3.93888 /NodeList/23/DeviceList/1/$ns3::WifiNetDevice/Phy/State/RxOk ns3::WifiMacHeader (DATA ToDS=0, FromDS=0, MoreFrag=0, Retry=0, MoreData=0 Duration/ID=0us, DA=ff:ff:ff:ff:ff:ff, SA=00:00:00:00:00:08, BSSID=00:00:00:00:00:08, FragNumber=0, SeqNumber=0) ns3::LlcSnapHeader (type 0x800) ns3::Ipv4Header (tos 0x0 DSCP Default ECN Not-ECT ttl 18 id 0 protocol 17 offset (bytes) 0 flags [none] length: 52 10.1.2.8 > 10.1.2.255) ns3::UdpHeader (length: 32 654 > 654) ns3::aodv::TypeHeader (RREQ) ns3::aodv::RreqHeader (RREQ ID 1 destination: ipv4 10.1.1.7 sequence number 0 source: ipv4 10.1.1.4 sequence number 1 flags: Gratuitous RREP 1 Destination only 0 Unknown sequence number 1) ns3::WifiMacTrailer ()
t 3.94172 /NodeList/25/DeviceList/1/$ns3::WifiNetDevice/Phy/State/Tx ns3::WifiMacHeader (DATA ToDS=0, FromDS=0, MoreFrag=0, Retry=0, MoreData=0 Duration/ID=0us, DA=ff:ff:ff:ff:ff:ff, SA=00:00:00:00:00:06, BSSID=00:00:00:00:00:06, FragNumber=0, SeqNumber=0) ns3::LlcSnapHeader (type 0x800) ns3::Ipv4Header (tos 0x0 DSCP Default ECN Not-ECT ttl 18 id 0 protocol 17 offset (bytes) 0 flags [none] length: 52 10.1.2.6 > 10.1.2.255) ns3::UdpHeader (length: 32 654 > 654) ns3::aodv::TypeHeader (RREQ) ns3::aodv::RreqHeader (RREQ ID 1 destination: ipv4 10.1.1.7 sequence number 0 source: ipv4 10.1.1.4 sequence number 1 flags: Gratuitous RREP 1 Destination only 0 Unknown sequence number 1) ns3::WifiMacTrailer ()
t 3.94172 /NodeList/24/DeviceList/1/$ns3::WifiNetDevice/Phy/State/Tx ns3::WifiMacHeader (DATA ToDS=0, FromDS=0, MoreFrag=0, Retry=0, MoreData=0 Duration/ID=0us, DA=ff:ff:ff:ff:ff:ff, SA=00:00:00:00:00:05, BSSID=00:00:00:00:00:05, FragNumber=0, SeqNumber=0) ns3::LlcSnapHeader (type 0x800) ns3::Ipv4Header (tos 0x0 DSCP Default ECN Not-ECT ttl 18 id 0 protocol 17 offset (bytes) 0 flags [none] length: 52 10.1.2.5 > 10.1.2.255) ns3::UdpHeader (length: 32 654 > 654) ns3::aodv::TypeHeader (RREQ) ns3::aodv::RreqHeader (RREQ ID 1 destination: ipv4 10.1.1.7 sequence number 0 source: ipv4 10.1.1.4 sequence number 1 flags: Gratuitous RREP 1 Destination only 0 Unknown sequence number 1) ns3::WifiMacTrailer ()
r 3.94187 /NodeList/22/DeviceList/1/$ns3::WifiNetDevice/Phy/State/RxOk ns3::WifiMacHeader (DATA ToDS=0, FromDS=0, MoreFrag=0, Retry=0, MoreData=0 Duration/ID=0us, DA=ff:ff:ff:ff:ff:ff, SA=00:00:00:00:00:06, BSSID=00:00:00:00:00:06, FragNumber=0, SeqNumber=0) ns3::LlcSnapHeader (type 0x800) ns3::Ipv4Header (tos 0x0 DSCP Default ECN Not-ECT ttl 18 id 0 protocol 17 offset (bytes) 0 flags [none] length: 52 10.1.2.6 > 10.1.2.255) ns3::UdpHeader (length: 32 654 > 654) ns3::aodv::TypeHeader (RREQ) ns3::aodv::RreqHeader (RREQ ID 1 destination: ipv4 10.1.1.7 sequence number 0 source: ipv4 10.1.1.4 sequence number 1 flags: Gratuitous RREP 1 Destination only 0 Unknown sequence number 1) ns3::WifiMacTrailer ()
r 3.94188 /NodeList/26/DeviceList/1/$ns3::WifiNetDevice/Phy/State/RxOk ns3::WifiMacHeader (DATA ToDS=0, FromDS=0, MoreFrag=0, Retry=0, MoreData=0 Duration/ID=0us, DA=ff:ff:ff:ff:ff:ff, SA=00:00:00:00:00:05, BSSID=00:00:00:00:00:05, FragNumber=0, SeqNumber=0) ns3::LlcSnapHeader (type 0x800) ns3::Ipv4Header (tos 0x0 DSCP Default ECN Not-ECT ttl 18 id 0 protocol 17 offset (bytes) 0 flags [none] length: 52 10.1.2.5 > 10.1.2.255) ns3::UdpHeader (length: 32 654 > 654) ns3::aodv::TypeHeader (RREQ) ns3::aodv::RreqHeader (RREQ ID 1 destination: ipv4 10.1.1.7 sequence number 0 source: ipv4 10.1.1.4 sequence number 1 flags: Gratuitous RREP 1 Destination only 0 Unknown sequence number 1) ns3::WifiMacTrailer ()
r 3.94188 /NodeList/23/DeviceList/1/$ns3::WifiNetDevice/Phy/State/RxOk ns3::WifiMacHeader (DATA ToDS=0, FromDS=0, MoreFrag=0, Retry=0, MoreData=0 Duration/ID=0us, DA=ff:ff:ff:ff:ff:ff, SA=00:00:00:00:00:05, BSSID=00:00:00:00:00:05, FragNumber=0, SeqNumber=0) ns3::LlcSnapHeader (type 0x800) ns3::Ipv4Header (tos 0x0 DSCP Default ECN Not-ECT ttl 18 id 0 protocol 17 offset (bytes) 0 flags [none] length: 52 10.1.2.5 > 10.1.2.255) ns3::UdpHeader (length: 32 654 > 654) ns3::aodv::TypeHeader (RREQ) ns3::aodv::RreqHeader (RREQ ID 1 destination: ipv4 10.1.1.7 sequence number 0 source: ipv4 10.1.1.4 sequence number 1 flags: Gratuitous RREP 1 Destination only 0 Unknown sequence number 1) ns3::WifiMacTrailer ()
r 3.94188 /NodeList/20/DeviceList/1/$ns3::WifiNetDevice/Phy/State/RxOk ns3::WifiMacHeader (DATA ToDS=0, FromDS=0, MoreFrag=0, Retry=0, MoreData=0 Duration/ID=0us, DA=ff:ff:ff:ff:ff:ff, SA=00:00:00:00:00:05, BSSID=00:00:00:00:00:05, FragNumber=0, SeqNumber=0) ns3::LlcSnapHeader (type 0x800) ns3::Ipv4Header (tos 0x0 DSCP Default ECN Not-ECT ttl 18 id 0 protocol 17 offset (bytes) 0 flags [none] length: 52 10.1.2.5 > 10.1.2.255) ns3::UdpHeader (length: 32 654 > 654) ns3::aodv::TypeHeader (RREQ) ns3::aodv::RreqHeader (RREQ ID 1 destination: ipv4 10.1.1.7 sequence number 0 source: ipv4 10.1.1.4 sequence number 1 flags: Gratuitous RREP 1 Destination only 0 Unknown sequence number 1) ns3::WifiMacTrailer ()
t 3.94372 /NodeList/21/DeviceList/1/$ns3::WifiNetDevice/Phy/State/Tx ns3::WifiMacHeader (DATA ToDS=0, FromDS=0, MoreFrag=0, Retry=0, MoreData=0 Duration/ID=0us, DA=ff:ff:ff:ff:ff:ff, SA=00:00:00:00:00:02, BSSID=00:00:00:00:00:02, FragNumber=0, SeqNumber=0) ns3::LlcSnapHeader (type 0x800) ns3::Ipv4Header (tos 0x0 DSCP Default ECN Not-ECT ttl 18 id 0 protocol 17 offset (bytes) 0 flags [none] length: 52 10.1.2.2 > 10.1.2.255) ns3::UdpHeader (length: 32 654 > 654) ns3::aodv::TypeHeader (RREQ) ns3::aodv::RreqHeader (RREQ ID 1 destination: ipv4 10.1.1.7 sequence number 0 source: ipv4 10.1.1.4 sequence number 1 flags: Gratuitous RREP 1 Destination only 0 Unknown sequence number 1) ns3::WifiMacTrailer ()
r 3.94387 /NodeList/26/DeviceList/1/$ns3::WifiNetDevice/Phy/State/RxOk ns3::WifiMacHeader (DATA ToDS=0, FromDS=0, MoreFrag=0, Retry=0, MoreData=0 Duration/ID=0us, DA=ff:ff:ff:ff:ff:ff, SA=00:00:00:00:00:02, BSSID=00:00:00:00:00:02, FragNumber=0, SeqNumber=0) ns3::LlcSnapHeader (type 0x800) ns3::Ipv4Header (tos 0x0 DSCP Default ECN Not-ECT ttl 18 id 0 protocol 17 offset (bytes) 0 flags [none] length: 52 10.1.2.2 > 10.1.2.255) ns3::UdpHeader (length: 32 654 > 654) ns3::aodv::TypeHeader (RREQ) ns3::aodv::RreqHeader (RREQ ID 1 destination: ipv4 10.1.1.7 sequence number 0 source: ipv4 10.1.1.4 sequence number 1 flags: Gratuitous RREP 1 Destination only 0 Unknown sequence number 1) ns3::WifiMacTrailer ()
r 3.94387 /NodeList/27/DeviceList/1/$ns3::WifiNetDevice/Phy/State/RxOk ns3::WifiMacHeader (DATA ToDS=0, FromDS=0, MoreFrag=0, Retry=0, MoreData=0 Duration/ID=0us, DA=ff:ff:ff:ff:ff:ff, SA=00:00:00:00:00:02, BSSID=00:00:00:00:00:02, FragNumber=0, SeqNumber=0) ns3::LlcSnapHeader (type 0x800) ns3::Ipv4Header (tos 0x0 DSCP Default ECN Not-ECT ttl 18 id 0 protocol 17 offset (bytes) 0 flags [none] length: 52 10.1.2.2 > 10.1.2.255) ns3::UdpHeader (length: 32 654 > 654) ns3::aodv::TypeHeader (RREQ) ns3::aodv::RreqHeader (RREQ ID 1 destination: ipv4 10.1.1.7 sequence number 0 source: ipv4 10.1.1.4 sequence number 1 flags: Gratuitous RREP 1 Destination only 0 Unknown sequence number 1) ns3::WifiMacTrailer ()
r 3.94387 /NodeList/24/DeviceList/1/$ns3::WifiNetDevice/Phy/State/RxOk ns3::WifiMacHeader (DATA ToDS=0, FromDS=0, MoreFrag=0, Retry=0, MoreData=0 Duration/ID=0us, DA=ff:ff:ff:ff:ff:ff, SA=00:00:00:00:00:02, BSSID=00:00:00:00:00:02, FragNumber=0, SeqNumber=0) ns3::LlcSnapHeader (type 0x800) ns3::Ipv4Header (tos 0x0 DSCP Default ECN Not-ECT ttl 18 id 0 protocol 17 offset (bytes) 0 flags [none] length: 52 10.1.2.2 > 10.1.2.255) ns3::UdpHeader (length: 32 654 > 654) ns3::aodv::TypeHeader (RREQ) ns3::aodv::RreqHeader (RREQ ID 1 destination: ipv4 10.1.1.7 sequence number 0 source: ipv4 10.1.1.4 sequence number 1 flags: Gratuitous RREP 1 Destination only 0 Unknown sequence number 1) ns3::WifiMacTrailer ()
r 3.94388 /NodeList/20/DeviceList/1/$ns3::WifiNetDevice/Phy/State/RxOk ns3::WifiMacHeader (DATA ToDS=0, FromDS=0, MoreFrag=0, Retry=0, MoreData=0 Duration/ID=0us, DA=ff:ff:ff:ff:ff:ff, SA=00:00:00:00:00:02, BSSID=00:00:00:00:00:02, FragNumber=0, SeqNumber=0) ns3::LlcSnapHeader (type 0x800) ns3::Ipv4Header (tos 0x0 DSCP Default ECN Not-ECT ttl 18 id 0 protocol 17 offset (bytes) 0 flags [none] length: 52 10.1.2.2 > 10.1.2.255) ns3::UdpHeader (length: 32 654 > 654) ns3::aodv::TypeHeader (RREQ) ns3::aodv::RreqHeader (RREQ ID 1 destination: ipv4 10.1.1.7 sequence number 0 source: ipv4 10.1.1.4 sequence number 1 flags: Gratuitous RREP 1 Destination only 0 Unknown sequence number 1) ns3::WifiMacTrailer ()
r 3.94388 /NodeList/22/DeviceList/1/$ns3::WifiNetDevice/Phy/State/RxOk ns3::WifiMacHeader (DATA ToDS=0, FromDS=0, MoreFrag=0, Retry=0, MoreData=0 Duration/ID=0us, DA=ff:ff:ff:ff:ff:ff, SA=00:00:00:00:00:02, BSSID=00:00:00:00:00:02, FragNumber=0, SeqNumber=0) ns3::LlcSnapHeader (type 0x800) ns3::Ipv4Header (tos 0x0 DSCP Default ECN Not-ECT ttl 18 id 0 protocol 17 offset (bytes) 0 flags [none] length: 52 10.1.2.2 > 10.1.2.255) ns3::UdpHeader (length: 32 654 > 654) ns3::aodv::TypeHeader (RREQ) ns3::aodv::RreqHeader (RREQ ID 1 destination: ipv4 10.1.1.7 sequence number 0 source: ipv4 10.1.1.4 sequence number 1 flags: Gratuitous RREP 1 Destination only 0 Unknown sequence number 1) ns3::WifiMacTrailer ()
r 3.94388 /NodeList/23/DeviceList/1/$ns3::WifiNetDevice/Phy/State/RxOk ns3::WifiMacHeader (DATA ToDS=0, FromDS=0, MoreFrag=0, Retry=0, MoreData=0 Duration/ID=0us, DA=ff:ff:ff:ff:ff:ff, SA=00:00:00:00:00:02, BSSID=00:00:00:00:00:02, FragNumber=0, SeqNumber=0) ns3::LlcSnapHeader (type 0x800) ns3::Ipv4Header (tos 0x0 DSCP Default ECN Not-ECT ttl 18 id 0 protocol 17 offset (bytes) 0 flags [none] length: 52 10.1.2.2 > 10.1.2.255) ns3::UdpHeader (length: 32 654 > 654) ns3::aodv::TypeHeader (RREQ) ns3::aodv::RreqHeader (RREQ ID 1 destination: ipv4 10.1.1.7 sequence number 0 source: ipv4 10.1.1.4 sequence number 1 flags: Gratuitous RREP 1 Destination only 0 Unknown sequence number 1) ns3::WifiMacTrailer ()
r 3.94388 /NodeList/25/DeviceList/1/$ns3::WifiNetDevice/Phy/State/RxOk ns3::WifiMacHeader (DATA ToDS=0, FromDS=0, MoreFrag=0, Retry=0, MoreData=0 Duration/ID=0us, DA=ff:ff:ff:ff:ff:ff, SA=00:00:00:00:00:02, BSSID=00:00:00:00:00:02, FragNumber=0, SeqNumber=0) ns3::LlcSnapHeader (type 0x800) ns3::Ipv4Header (tos 0x0 DSCP Default ECN Not-ECT ttl 18 id 0 protocol 17 offset (bytes) 0 flags [none] length: 52 10.1.2.2 > 10.1.2.255) ns3::UdpHeader (length: 32 654 > 654) ns3::aodv::TypeHeader (RREQ) ns3::aodv::RreqHeader (RREQ ID 1 destination: ipv4 10.1.1.7 sequence number 0 source: ipv4 10.1.1.4 sequence number 1 flags: Gratuitous RREP 1 Destination only 0 Unknown sequence number 1) ns3::WifiMacTrailer ()
t 3.94673 /NodeList/26/DeviceList/1/$ns3::WifiNetDevice/Phy/State/Tx ns3::WifiMacHeader (DATA ToDS=0, FromDS=0, MoreFrag=0, Retry=0, MoreData=0 Duration/ID=0us, DA=ff:ff:ff:ff:ff:ff, SA=00:00:00:00:00:07, BSSID=00:00:00:00:00:07, FragNumber=0, SeqNumber=0) ns3::LlcSnapHeader (type 0x800) ns3::Ipv4Header (tos 0x0 DSCP Default ECN Not-ECT ttl 18 id 0 protocol 17 offset (bytes) 0 flags [none] length: 52 10.1.2.7 > 10.1.2.255) ns3::UdpHeader (length: 32 654 > 654) ns3::aodv::TypeHeader (RREQ) ns3::aodv::RreqHeader (RREQ ID 1 destination: ipv4 10.1.1.7 sequence number 0 source: ipv4 10.1.1.4 sequence number 1 flags: Gratuitous RREP 1 Destination only 0 Unknown sequence number 1) ns3::WifiMacTrailer ()
t 3.94673 /NodeList/20/DeviceList/1/$ns3::WifiNetDevice/Phy/State/Tx ns3::WifiMacHeader (DATA ToDS=0, FromDS=0, MoreFrag=0, Retry=0, MoreData=0 Duration/ID=0us, DA=ff:ff:ff:ff:ff:ff, SA=00:00:00:00:00:01, BSSID=00:00:00:00:00:01, FragNumber=0, SeqNumber=0) ns3::LlcSnapHeader (type 0x800) ns3::Ipv4Header (tos 0x0 DSCP Default ECN Not-ECT ttl 18 id 0 protocol 17 offset (bytes) 0 flags [none] length: 52 10.1.2.1 > 10.1.2.255) ns3::UdpHeader (length: 32 654 > 654) ns3::aodv::TypeHeader (RREQ) ns3::aodv::RreqHeader (RREQ ID 1 destination: ipv4 10.1.1.7 sequence number 0 source: ipv4 10.1.1.4 sequence number 1 flags: Gratuitous RREP 1 Destination only 0 Unknown sequence number 1) ns3::WifiMacTrailer ()
r 3.94688 /NodeList/21/DeviceList/1/$ns3::WifiNetDevice/Phy/State/RxOk ns3::WifiMacHeader (DATA ToDS=0, FromDS=0, MoreFrag=0, Retry=0, MoreData=0 Duration/ID=0us, DA=ff:ff:ff:ff:ff:ff, SA=00:00:00:00:00:07, BSSID=00:00:00:00:00:07, FragNumber=0, SeqNumber=0) ns3::LlcSnapHeader (type 0x800) ns3::Ipv4Header (tos 0x0 DSCP Default ECN Not-ECT ttl 18 id 0 protocol 17 offset (bytes) 0 flags [none] length: 52 10.1.2.7 > 10.1.2.255) ns3::UdpHeader (length: 32 654 > 654) ns3::aodv::TypeHeader (RREQ) ns3::aodv::RreqHeader (RREQ ID 1 destination: ipv4 10.1.1.7 sequence number 0 source: ipv4 10.1.1.4 sequence number 1 flags: Gratuitous RREP 1 Destination only 0 Unknown sequence number 1) ns3::WifiMacTrailer ()
r 3.94688 /NodeList/24/DeviceList/1/$ns3::WifiNetDevice/Phy/State/RxOk ns3::WifiMacHeader (DATA ToDS=0, FromDS=0, MoreFrag=0, Retry=0, MoreData=0 Duration/ID=0us, DA=ff:ff:ff:ff:ff:ff, SA=00:00:00:00:00:07, BSSID=00:00:00:00:00:07, FragNumber=0, SeqNumber=0) ns3::LlcSnapHeader (type 0x800) ns3::Ipv4Header (tos 0x0 DSCP Default ECN Not-ECT ttl 18 id 0 protocol 17 offset (bytes) 0 flags [none] length: 52 10.1.2.7 > 10.1.2.255) ns3::UdpHeader (length: 32 654 > 654) ns3::aodv::TypeHeader (RREQ) ns3::aodv::RreqHeader (RREQ ID 1 destination: ipv4 10.1.1.7 sequence number 0 source: ipv4 10.1.1.4 sequence number 1 flags: Gratuitous RREP 1 Destination only 0 Unknown sequence number 1) ns3::WifiMacTrailer ()