+ 3.004 /NodeList/3/DeviceList/0/$ns3::UanNetDevice/Phy/Tx ns3::UanHeaderCommon (UAN src=3 dest=255 type=0Protocol Number=1) ns3::Ipv4Header (tos 0x0 DSCP Default ECN Not-ECT ttl 20 id 0 protocol 17 offset (bytes) 0 flags [none] length: 52 10.1.1.4 > 10.1.1.255) ns3::UdpHeader (length: 32 654 > 654) ns3::aodv::TypeHeader (RREQ) ns3::aodv::RreqHeader (RREQ ID 1 destination: ipv4 10.1.1.7 sequence number 0 source: ipv4 10.1.1.4 sequence number 1 flags: Gratuitous RREP 1 Destination only 0 Unknown sequence number 1)
r 3.71142 /NodeList/13/DeviceList/0/$ns3::UanNetDevice/Phy/RxOk ns3::UanHeaderCommon (UAN src=3 dest=255 type=0Protocol Number=1) ns3::Ipv4Header (tos 0x0 DSCP Default ECN Not-ECT ttl 20 id 0 protocol 17 offset (bytes) 0 flags [none] length: 52 10.1.1.4 > 10.1.1.255) ns3::UdpHeader (length: 32 654 > 654) ns3::aodv::TypeHeader (RREQ) ns3::aodv::RreqHeader (RREQ ID 1 destination: ipv4 10.1.1.7 sequence number 0 source: ipv4 10.1.1.4 sequence number 1 flags: Gratuitous RREP 1 Destination only 0 Unknown sequence number 1)
+ 3.71642 /NodeList/13/DeviceList/0/$ns3::UanNetDevice/Phy/Tx ns3::UanHeaderCommon (UAN src=13 dest=255 type=0Protocol Number=1) ns3::Ipv4Header (tos 0x0 DSCP Default ECN Not-ECT ttl 19 id 0 protocol 17 offset (bytes) 0 flags [none] length: 52 10.1.1.14 > 10.1.1.255) ns3::UdpHeader (length: 32 654 > 654) ns3::aodv::TypeHeader (RREQ) ns3::aodv::RreqHeader (RREQ ID 1 destination: ipv4 10.1.1.7 sequence number 0 source: ipv4 10.1.1.4 sequence number 1 flags: Gratuitous RREP 1 Destination only 0 Unknown sequence number 1)
r 3.93657 /NodeList/22/DeviceList/0/$ns3::UanNetDevice/Phy/RxOk ns3::UanHeaderCommon (UAN src=3 dest=255 type=0Protocol Number=1) ns3::Ipv4Header (tos 0x0 DSCP Default ECN Not-ECT ttl 20 id 0 protocol 17 offset (bytes) 0 flags [none] length: 52 10.1.1.4 > 10.1.1.255) ns3::UdpHeader (length: 32 654 > 654) ns3::aodv::TypeHeader (RREQ) ns3::aodv::RreqHeader (RREQ ID 1 destination: ipv4 10.1.1.7 sequence number 0 source: ipv4 10.1.1.4 sequence number 1 flags: Gratuitous RREP 1 Destination only 0 Unknown sequence number 1)
+ 3.93672 /NodeList/24/DeviceList/0/$ns3::UanNetDevice/Phy/Tx ns3::UanHeaderCommon (UAN src=24 dest=255 type=0Protocol Number=1) ns3::Ipv4Header (tos 0x0 DSCP Default ECN Not-ECT ttl 18 id 0 protocol 17 offset (bytes) 0 flags [none] length: 52 10.1.1.25 > 10.1.1.255) ns3::UdpHeader (length: 32 654 > 654) ns3::aodv::TypeHeader (RREQ) ns3::aodv::RreqHeader (RREQ ID 1 destination: ipv4 10.1.1.7 sequence number 0 source: ipv4 10.1.1.4 sequence number 1 flags: Gratuitous RREP 1 Destination only 0 Unknown sequence number 1)
+ 3.94172 /NodeList/27/DeviceList/0/$ns3::UanNetDevice/Phy/Tx ns3::UanHeaderCommon (UAN src=27 dest=255 type=0Protocol Number=1) ns3::Ipv4Header (tos 0x0 DSCP Default ECN Not-ECT ttl 18 id 0 protocol 17 offset (bytes) 0 flags [none] length: 52 10.1.1.28 > 10.1.1.255) ns3::UdpHeader (length: 32 654 > 654) ns3::aodv::TypeHeader (RREQ) ns3::aodv::RreqHeader (RREQ ID 1 destination: ipv4 10.1.1.7 sequence number 0 source: ipv4 10.1.1.4 sequence number 1 flags: Gratuitous RREP 1 Destination only 0 Unknown sequence number 1)
+ 3.94273 /NodeList/20/DeviceList/0/$ns3::UanNetDevice/Phy/Tx ns3::UanHeaderCommon (UAN src=20 dest=255 type=0Protocol Number=1) ns3::Ipv4Header (tos 0x0 DSCP Default ECN Not-ECT ttl 18 id 0 protocol 17 offset (bytes) 0 flags [none] length: 52 10.1.1.21 > 10.1.1.255) ns3::UdpHeader (length: 32 654 > 654) ns3::aodv::TypeHeader (RREQ) ns3::aodv::RreqHeader (RREQ ID 1 destination: ipv4 10.1.1.7 sequence number 0 source: ipv4 10.1.1.4 sequence number 1 flags: Gratuitous RREP 1 Destination only 0 Unknown sequence number 1)
+ 3.94472 /NodeList/21/DeviceList/0/$ns3::UanNetDevice/Phy/Tx ns3::UanHeaderCommon (UAN src=21 dest=255 type=0Protocol Number=1) ns3::Ipv4Header (tos 0x0 DSCP Default ECN Not-ECT ttl 18 id 0 protocol 17 offset (bytes) 0 flags [none] length: 52 10.1.1.22 > 10.1.1.255) ns3::UdpHeader (length: 32 654 > 654) ns3::aodv::TypeHeader (RREQ) ns3::aodv::RreqHeader (RREQ ID 1 destination: ipv4 10.1.1.7 sequence number 0 source: ipv4 10.1.1.4 sequence number 1 flags: Gratuitous RREP 1 Destination only 0 Unknown sequence number 1)
+ 3.94474 /NodeList/23/DeviceList/0/$ns3::UanNetDevice/Phy/Tx ns3::UanHeaderCommon (UAN src=23 dest=255 type=0Protocol Number=1) ns3::Ipv4Header (tos 0x0 DSCP Default ECN Not-ECT ttl 18 id 0 protocol 17 offset (bytes) 0 flags [none] length: 52 10.1.1.24 > 10.1.1.255) ns3::UdpHeader (length: 32 654 > 654) ns3::aodv::TypeHeader (RREQ) ns3::aodv::RreqHeader (RREQ ID 1 destination: ipv4 10.1.1.7 sequence number 0 source: ipv4 10.1.1.4 sequence number 1 flags: Gratuitous RREP 1 Destination only 0 Unknown sequence number 1)
+ 3.94573 /NodeList/26/DeviceList/0/$ns3::UanNetDevice/Phy/Tx ns3::UanHeaderCommon (UAN src=26 dest=255 type=0Protocol Number=1) ns3::Ipv4Header (tos 0x0 DSCP Default ECN Not-ECT ttl 18 id 0 protocol 17 offset (bytes) 0 flags [none] length: 52 10.1.1.27 > 10.1.1.255) ns3::UdpHeader (length: 32 654 > 654) ns3::aodv::TypeHeader (RREQ) ns3::aodv::RreqHeader (RREQ ID 1 destination: ipv4 10.1.1.7 sequence number 0 source: ipv4 10.1.1.4 sequence number 1 flags: Gratuitous RREP 1 Destination only 0 Unknown sequence number 1)
+ 3.94657 /NodeList/22/DeviceList/0/$ns3::UanNetDevice/Phy/Tx ns3::UanHeaderCommon (UAN src=22 dest=255 type=0Protocol Number=1) ns3::Ipv4Header (tos 0x0 DSCP Default ECN Not-ECT ttl 19 id 0 protocol 17 offset (bytes) 0 flags [none] length: 52 10.1.1.23 > 10.1.1.255) ns3::UdpHeader (length: 32 654 > 654) ns3::aodv::TypeHeader (RREQ) ns3::aodv::RreqHeader (RREQ ID 1 destination: ipv4 10.1.1.7 sequence number 0 source: ipv4 10.1.1.4 sequence number 1 flags: Gratuitous RREP 1 Destination only 0 Unknown sequence number 1)
+ 3.94672 /NodeList/25/DeviceList/0/$ns3::UanNetDevice/Phy/Tx ns3::UanHeaderCommon (UAN src=25 dest=255 type=0Protocol Number=1) ns3::Ipv4Header (tos 0x0 DSCP Default ECN Not-ECT ttl 18 id 0 protocol 17 offset (bytes) 0 flags [none] length: 52 10.1.1.26 > 10.1.1.255) ns3::UdpHeader (length: 32 654 > 654) ns3::aodv::TypeHeader (RREQ) ns3::aodv::RreqHeader (RREQ ID 1 destination: ipv4 10.1.1.7 sequence number 0 source: ipv4 10.1.1.4 sequence number 1 flags: Gratuitous RREP 1 Destination only 0 Unknown sequence number 1)
r 4.02662 /NodeList/6/DeviceList/0/$ns3::UanNetDevice/Phy/RxOk ns3::UanHeaderCommon (UAN src=3 dest=255 type=0Protocol Number=1) ns3::Ipv4Header (tos 0x0 DSCP Default ECN Not-ECT ttl 20 id 0 protocol 17 offset (bytes) 0 flags [none] length: 52 10.1.1.4 > 10.1.1.255) ns3::UdpHeader (length: 32 654 > 654) ns3::aodv::TypeHeader (RREQ) ns3::aodv::RreqHeader (RREQ ID 1 destination: ipv4 10.1.1.7 sequence number 0 source: ipv4 10.1.1.4 sequence number 1 flags: Gratuitous RREP 1 Destination only 0 Unknown sequence number 1)
+ 4.02662 /NodeList/6/DeviceList/0/$ns3::UanNetDevice/Phy/Tx ns3::UanHeaderCommon (UAN src=6 dest=3 type=0Protocol Number=1) ns3::Ipv4Header (tos 0x0 DSCP Default ECN Not-ECT ttl 1 id 0 protocol 17 offset (bytes) 0 flags [none] length: 48 10.1.1.7 > 10.1.1.4) ns3::UdpHeader (length: 28 654 > 654) ns3::aodv::TypeHeader (RREP) ns3::aodv::RrepHeader (destination: ipv4 10.1.1.7 sequence number 0 source ipv4 10.1.1.4 lifetime 2000000 acknowledgment required flag 0)
r 4.13149 /NodeList/5/DeviceList/0/$ns3::UanNetDevice/Phy/RxOk ns3::UanHeaderCommon (UAN src=3 dest=255 type=0Protocol Number=1) ns3::Ipv4Header (tos 0x0 DSCP Default ECN Not-ECT ttl 20 id 0 protocol 17 offset (bytes) 0 flags [none] length: 52 10.1.1.4 > 10.1.1.255) ns3::UdpHeader (length: 32 654 > 654) ns3::aodv::TypeHeader (RREQ) ns3::aodv::RreqHeader (RREQ ID 1 destination: ipv4 10.1.1.7 sequence number 0 source: ipv4 10.1.1.4 sequence number 1 flags: Gratuitous RREP 1 Destination only 0 Unknown sequence number 1)
+ 4.13749 /NodeList/5/DeviceList/0/$ns3::UanNetDevice/Phy/Tx ns3::UanHeaderCommon (UAN src=5 dest=255 type=0Protocol Number=1) ns3::Ipv4Header (tos 0x0 DSCP Default ECN Not-ECT ttl 19 id 0 protocol 17 offset (bytes) 0 flags [none] length: 52 10.1.1.6 > 10.1.1.255) ns3::UdpHeader (length: 32 654 > 654) ns3::aodv::TypeHeader (RREQ) ns3::aodv::RreqHeader (RREQ ID 1 destination: ipv4 10.1.1.7 sequence number 0 source: ipv4 10.1.1.4 sequence number 1 flags: Gratuitous RREP 1 Destination only 0 Unknown sequence number 1)
r 4.31136 /NodeList/22/DeviceList/0/$ns3::UanNetDevice/Phy/RxOk ns3::UanHeaderCommon (UAN src=13 dest=255 type=0Protocol Number=1) ns3::Ipv4Header (tos 0x0 DSCP Default ECN Not-ECT ttl 19 id 0 protocol 17 offset (bytes) 0 flags [none] length: 52 10.1.1.14 > 10.1.1.255) ns3::UdpHeader (length: 32 654 > 654) ns3::aodv::TypeHeader (RREQ) ns3::aodv::RreqHeader (RREQ ID 1 destination: ipv4 10.1.1.7 sequence number 0 source: ipv4 10.1.1.4 sequence number 1 flags: Gratuitous RREP 1 Destination only 0 Unknown sequence number 1)
r 4.42384 /NodeList/3/DeviceList/0/$ns3::UanNetDevice/Phy/RxOk ns3::UanHeaderCommon (UAN src=13 dest=255 type=0Protocol Number=1) ns3::Ipv4Header (tos 0x0 DSCP Default ECN Not-ECT ttl 19 id 0 protocol 17 offset (bytes) 0 flags [none] length: 52 10.1.1.14 > 10.1.1.255) ns3::UdpHeader (length: 32 654 > 654) ns3::aodv::TypeHeader (RREQ) ns3::aodv::RreqHeader (RREQ ID 1 destination: ipv4 10.1.1.7 sequence number 0 source: ipv4 10.1.1.4 sequence number 1 flags: Gratuitous RREP 1 Destination only 0 Unknown sequence number 1)
r 4.47643 /NodeList/14/DeviceList/0/$ns3::UanNetDevice/Phy/RxOk ns3::UanHeaderCommon (UAN src=23 dest=255 type=0Protocol Number=1) ns3::Ipv4Header (tos 0x0 DSCP Default ECN Not-ECT ttl 18 id 0 protocol 17 offset (bytes) 0 flags [none] length: 52 10.1.1.24 > 10.1.1.255) ns3::UdpHeader (length: 32 654 > 654) ns3::aodv::TypeHeader (RREQ) ns3::aodv::RreqHeader (RREQ ID 1 destination: ipv4 10.1.1.7 sequence number 0 source: ipv4 10.1.1.4 sequence number 1 flags: Gratuitous RREP 1 Destination only 0 Unknown sequence number 1)
+ 4.48643 /NodeList/14/DeviceList/0/$ns3::UanNetDevice/Phy/Tx ns3::UanHeaderCommon (UAN src=14 dest=255 type=0Protocol Number=1) ns3::Ipv4Header (tos 0x0 DSCP Default ECN Not-ECT ttl 17 id 0 protocol 17 offset (bytes) 0 flags [none] length: 52 10.1.1.15 > 10.1.1.255) ns3::UdpHeader (length: 32 654 > 654) ns3::aodv::TypeHeader (RREQ) ns3::aodv::RreqHeader (RREQ ID 1 destination: ipv4 10.1.1.7 sequence number 0 source: ipv4 10.1.1.4 sequence number 1 flags: Gratuitous RREP 1 Destination only 0 Unknown sequence number 1)
r 4.54151 /NodeList/13/DeviceList/0/$ns3::UanNetDevice/Phy/RxOk ns3::UanHeaderCommon (UAN src=22 dest=255 type=0Protocol Number=1) ns3::Ipv4Header (tos 0x0 DSCP Default ECN Not-ECT ttl 19 id 0 protocol 17 offset (bytes) 0 flags [none] length: 52 10.1.1.23 > 10.1.1.255) ns3::UdpHeader (length: 32 654 > 654) ns3::aodv::TypeHeader (RREQ) ns3::aodv::RreqHeader (RREQ ID 1 destination: ipv4 10.1.1.7 sequence number 0 source: ipv4 10.1.1.4 sequence number 1 flags: Gratuitous RREP 1 Destination only 0 Unknown sequence number 1)
r 4.59659 /NodeList/8/DeviceList/0/$ns3::UanNetDevice/Phy/RxOk ns3::UanHeaderCommon (UAN src=20 dest=255 type=0Protocol Number=1) ns3::Ipv4Header (tos 0x0 DSCP Default ECN Not-ECT ttl 18 id 0 protocol 17 offset (bytes) 0 flags [none] length: 52 10.1.1.21 > 10.1.1.255) ns3::UdpHeader (length: 32 654 > 654) ns3::aodv::TypeHeader (RREQ) ns3::aodv::RreqHeader (RREQ ID 1 destination: ipv4 10.1.1.7 sequence number 0 source: ipv4 10.1.1.4 sequence number 1 flags: Gratuitous RREP 1 Destination only 0 Unknown sequence number 1)
+ 4.59759 /NodeList/8/DeviceList/0/$ns3::UanNetDevice/Phy/Tx ns3::UanHeaderCommon (UAN src=8 dest=255 type=0Protocol Number=1) ns3::Ipv4Header (tos 0x0 DSCP Default ECN Not-ECT ttl 17 id 0 protocol 17 offset (bytes) 0 flags [none] length: 52 10.1.1.9 > 10.1.1.255) ns3::UdpHeader (length: 32 654 > 654) ns3::aodv::TypeHeader (RREQ) ns3::aodv::RreqHeader (RREQ ID 1 destination: ipv4 10.1.1.7 sequence number 0 source: ipv4 10.1.1.4 sequence number 1 flags: Gratuitous RREP 1 Destination only 0 Unknown sequence number 1)
r 4.60401 /NodeList/17/DeviceList/0/$ns3::UanNetDevice/Phy/RxOk ns3::UanHeaderCommon (UAN src=25 dest=255 type=0Protocol Number=1) ns3::Ipv4Header (tos 0x0 DSCP Default ECN Not-ECT ttl 18 id 0 protocol 17 offset (bytes) 0 flags [none] length: 52 10.1.1.26 > 10.1.1.255) ns3::UdpHeader (length: 32 654 > 654) ns3::aodv::TypeHeader (RREQ) ns3::aodv::RreqHeader (RREQ ID 1 destination: ipv4 10.1.1.7 sequence number 0 source: ipv4 10.1.1.4 sequence number 1 flags: Gratuitous RREP 1 Destination only 0 Unknown sequence number 1)
r 4.60655 /NodeList/13/DeviceList/0/$ns3::UanNetDevice/Phy/RxOk ns3::UanHeaderCommon (UAN src=5 dest=255 type=0Protocol Number=1) ns3::Ipv4Header (tos 0x0 DSCP Default ECN Not-ECT ttl 19 id 0 protocol 17 offset (bytes) 0 flags [none] length: 52 10.1.1.6 > 10.1.1.255) ns3::UdpHeader (length: 32 654 > 654) ns3::aodv::TypeHeader (RREQ) ns3::aodv::RreqHeader (RREQ ID 1 destination: ipv4 10.1.1.7 sequence number 0 source: ipv4 10.1.1.4 sequence number 1 flags: Gratuitous RREP 1 Destination only 0 Unknown sequence number 1)
+ 4.61301 /NodeList/17/DeviceList/0/$ns3::UanNetDevice/Phy/Tx ns3::UanHeaderCommon (UAN src=17 dest=255 type=0Protocol Number=1) ns3::Ipv4Header (tos 0x0 DSCP Default ECN Not-ECT ttl 17 id 0 protocol 17 offset (bytes) 0 flags [none] length: 52 10.1.1.18 > 10.1.1.255) ns3::UdpHeader (length: 32 654 > 654) ns3::aodv::TypeHeader (RREQ) ns3::aodv::RreqHeader (RREQ ID 1 destination: ipv4 10.1.1.7 sequence number 0 source: ipv4 10.1.1.4 sequence number 1 flags: Gratuitous RREP 1 Destination only 0 Unknown sequence number 1)
r 4.64164 /NodeList/6/DeviceList/0/$ns3::UanNetDevice/Phy/RxOk ns3::UanHeaderCommon (UAN src=22 dest=255 type=0Protocol Number=1) ns3::Ipv4Header (tos 0x0 DSCP Default ECN Not-ECT ttl 19 id 0 protocol 17 offset (bytes) 0 flags [none] length: 52 10.1.1.23 > 10.1.1.255) ns3::UdpHeader (length: 32 654 > 654) ns3::aodv::TypeHeader (RREQ) ns3::aodv::RreqHeader (RREQ ID 1 destination: ipv4 10.1.1.7 sequence number 0 source: ipv4 10.1.1.4 sequence number 1 flags: Gratuitous RREP 1 Destination only 0 Unknown sequence number 1)
r 4.65326 /NodeList/11/DeviceList/0/$ns3::UanNetDevice/Phy/RxOk ns3::UanHeaderCommon (UAN src=23 dest=255 type=0Protocol Number=1) ns3::Ipv4Header (tos 0x0 DSCP Default ECN Not-ECT ttl 18 id 0 protocol 17 offset (bytes) 0 flags [none] length: 52 10.1.1.24 > 10.1.1.255) ns3::UdpHeader (length: 32 654 > 654) ns3::aodv::TypeHeader (RREQ) ns3::aodv::RreqHeader (RREQ ID 1 destination: ipv4 10.1.1.7 sequence number 0 source: ipv4 10.1.1.4 sequence number 1 flags: Gratuitous RREP 1 Destination only 0 Unknown sequence number 1)
+ 4.65326 /NodeList/11/DeviceList/0/$ns3::UanNetDevice/Phy/Tx ns3::UanHeaderCommon (UAN src=11 dest=255 type=0Protocol Number=1) ns3::Ipv4Header (tos 0x0 DSCP Default ECN Not-ECT ttl 17 id 0 protocol 17 offset (bytes) 0 flags [none] length: 52 10.1.1.12 > 10.1.1.255) ns3::UdpHeader (length: 32 654 > 654) ns3::aodv::TypeHeader (RREQ) ns3::aodv::RreqHeader (RREQ ID 1 destination: ipv4 10.1.1.7 sequence number 0 source: ipv4 10.1.1.4 sequence number 1 flags: Gratuitous RREP 1 Destination only 0 Unknown sequence number 1)
r 4.70076 /NodeList/6/DeviceList/0/$ns3::UanNetDevice/Phy/RxOk ns3::UanHeaderCommon (UAN src=13 dest=255 type=0Protocol Number=1) ns3::Ipv4Header (tos 0x0 DSCP Default ECN Not-ECT ttl 19 id 0 protocol 17 offset (bytes) 0 flags [none] length: 52 10.1.1.14 > 10.1.1.255) ns3::UdpHeader (length: 32 654 > 654) ns3::aodv::TypeHeader (RREQ) ns3::aodv::RreqHeader (RREQ ID 1 destination: ipv4 10.1.1.7 sequence number 0 source: ipv4 10.1.1.4 sequence number 1 flags: Gratuitous RREP 1 Destination only 0 Unknown sequence number 1)
r 4.70528 /NodeList/5/DeviceList/0/$ns3::UanNetDevice/Phy/RxOk ns3::UanHeaderCommon (UAN src=22 dest=255 type=0Protocol Number=1) ns3::Ipv4Header (tos 0x0 DSCP Default ECN Not-ECT ttl 19 id 0 protocol 17 offset (bytes) 0 flags [none] length: 52 10.1.1.23 > 10.1.1.255) ns3::UdpHeader (length: 32 654 > 654) ns3::aodv::TypeHeader (RREQ) ns3::aodv::RreqHeader (RREQ ID 1 destination: ipv4 10.1.1.7 sequence number 0 source: ipv4 10.1.1.4 sequence number 1 flags: Gratuitous RREP 1 Destination only 0 Unknown sequence number 1)
r 4.71425 /NodeList/9/DeviceList/0/$ns3::UanNetDevice/Phy/RxOk ns3::UanHeaderCommon (UAN src=26 dest=255 type=0Protocol Number=1) ns3::Ipv4Header (tos 0x0 DSCP Default ECN Not-ECT ttl 18 id 0 protocol 17 offset (bytes) 0 flags [none] length: 52 10.1.1.27 > 10.1.1.255) ns3::UdpHeader (length: 32 654 > 654) ns3::aodv::TypeHeader (RREQ) ns3::aodv::RreqHeader (RREQ ID 1 destination: ipv4 10.1.1.7 sequence number 0 source: ipv4 10.1.1.4 sequence number 1 flags: Gratuitous RREP 1 Destination only 0 Unknown sequence number 1)
+ 4.71825 /NodeList/9/DeviceList/0/$ns3::UanNetDevice/Phy/Tx ns3::UanHeaderCommon (UAN src=9 dest=255 type=0Protocol Number=1) ns3::Ipv4Header (tos 0x0 DSCP Default ECN Not-ECT ttl 17 id 0 protocol 17 offset (bytes) 0 flags [none] length: 52 10.1.1.10 > 10.1.1.255) ns3::UdpHeader (length: 32 654 > 654) ns3::aodv::TypeHeader (RREQ) ns3::aodv::RreqHeader (RREQ ID 1 destination: ipv4 10.1.1.7 sequence number 0 source: ipv4 10.1.1.4 sequence number 1 flags: Gratuitous RREP 1 Destination only 0 Unknown sequence number 1)
r 4.71836 /NodeList/22/DeviceList/0/$ns3::UanNetDevice/Phy/RxOk ns3::UanHeaderCommon (UAN src=6 dest=3 type=0Protocol Number=1) ns3::Ipv4Header (tos 0x0 DSCP Default ECN Not-ECT ttl 1 id 0 protocol 17 offset (bytes) 0 flags [none] length: 48 10.1.1.7 > 10.1.1.4) ns3::UdpHeader (length: 28 654 > 654) ns3::aodv::TypeHeader (RREP) ns3::aodv::RrepHeader (destination: ipv4 10.1.1.7 sequence number 0 source ipv4 10.1.1.4 lifetime 2000000 acknowledgment required flag 0)
r 4.77235 /NodeList/0/DeviceList/0/$ns3::UanNetDevice/Phy/RxOk ns3::UanHeaderCommon (UAN src=21 dest=255 type=0Protocol Number=1) ns3::Ipv4Header (tos 0x0 DSCP Default ECN Not-ECT ttl 18 id 0 protocol 17 offset (bytes) 0 flags [none] length: 52 10.1.1.22 > 10.1.1.255) ns3::UdpHeader (length: 32 654 > 654) ns3::aodv::TypeHeader (RREQ) ns3::aodv::RreqHeader (RREQ ID 1 destination: ipv4 10.1.1.7 sequence number 0 source: ipv4 10.1.1.4 sequence number 1 flags: Gratuitous RREP 1 Destination only 0 Unknown sequence number 1)
+ 4.77735 /NodeList/0/DeviceList/0/$ns3::UanNetDevice/Phy/Tx ns3::UanHeaderCommon (UAN src=0 dest=255 type=0Protocol Number=1) ns3::Ipv4Header (tos 0x0 DSCP Default ECN Not-ECT ttl 17 id 0 protocol 17 offset (bytes) 0 flags [none] length: 52 10.1.1.1 > 10.1.1.255) ns3::UdpHeader (length: 32 654 > 654) ns3::aodv::TypeHeader (RREQ) ns3::aodv::RreqHeader (RREQ ID 1 destination: ipv4 10.1.1.7 sequence number 0 source: ipv4 10.1.1.4 sequence number 1 flags: Gratuitous RREP 1 Destination only 0 Unknown sequence number 1)
r 4.7906 /NodeList/19/DeviceList/0/$ns3::UanNetDevice/Phy/RxOk ns3::UanHeaderCommon (UAN src=24 dest=255 type=0Protocol Number=1) ns3::Ipv4Header (tos 0x0 DSCP Default ECN Not-ECT ttl 18 id 0 protocol 17 offset (bytes) 0 flags [none] length: 52 10.1.1.25 > 10.1.1.255) ns3::UdpHeader (length: 32 654 > 654) ns3::aodv::TypeHeader (RREQ) ns3::aodv::RreqHeader (RREQ ID 1 destination: ipv4 10.1.1.7 sequence number 0 source: ipv4 10.1.1.4 sequence number 1 flags: Gratuitous RREP 1 Destination only 0 Unknown sequence number 1)
+ 4.7946 /NodeList/19/DeviceList/0/$ns3::UanNetDevice/Phy/Tx ns3::UanHeaderCommon (UAN src=19 dest=255 type=0Protocol Number=1) ns3::Ipv4Header (tos 0x0 DSCP Default ECN Not-ECT ttl 17 id 0 protocol 17 offset (bytes) 0 flags [none] length: 52 10.1.1.20 > 10.1.1.255) ns3::UdpHeader (length: 32 654 > 654) ns3::aodv::TypeHeader (RREQ) ns3::aodv::RreqHeader (RREQ ID 1 destination: ipv4 10.1.1.7 sequence number 0 source: ipv4 10.1.1.4 sequence number 1 flags: Gratuitous RREP 1 Destination only 0 Unknown sequence number 1)
r 4.79753 /NodeList/18/DeviceList/0/$ns3::UanNetDevice/Phy/RxOk ns3::UanHeaderCommon (UAN src=21 dest=255 type=0Protocol Number=1) ns3::Ipv4Header (tos 0x0 DSCP Default ECN Not-ECT ttl 18 id 0 protocol 17 offset (bytes) 0 flags [none] length: 52 10.1.1.22 > 10.1.1.255) ns3::UdpHeader (length: 32 654 > 654) ns3::aodv::TypeHeader (RREQ) ns3::aodv::RreqHeader (RREQ ID 1 destination: ipv4 10.1.1.7 sequence number 0 source: ipv4 10.1.1.4 sequence number 1 flags: Gratuitous RREP 1 Destination only 0 Unknown sequence number 1)
+ 4.79753 /NodeList/18/DeviceList/0/$ns3::UanNetDevice/Phy/Tx ns3::UanHeaderCommon (UAN src=18 dest=255 type=0Protocol Number=1) ns3::Ipv4Header (tos 0x0 DSCP Default ECN Not-ECT ttl 17 id 0 protocol 17 offset (bytes) 0 flags [none] length: 52 10.1.1.19 > 10.1.1.255) ns3::UdpHeader (length: 32 654 > 654) ns3::aodv::TypeHeader (RREQ) ns3::aodv::RreqHeader (RREQ ID 1 destination: ipv4 10.1.1.7 sequence number 0 source: ipv4 10.1.1.4 sequence number 1 flags: Gratuitous RREP 1 Destination only 0 Unknown sequence number 1)
r 4.81188 /NodeList/16/DeviceList/0/$ns3::UanNetDevice/Phy/RxOk ns3::UanHeaderCommon (UAN src=21 dest=255 type=0Protocol Number=1) ns3::Ipv4Header (tos 0x0 DSCP Default ECN Not-ECT ttl 18 id 0 protocol 17 offset (bytes) 0 flags [none] length: 52 10.1.1.22 > 10.1.1.255) ns3::UdpHeader (length: 32 654 > 654) ns3::aodv::TypeHeader (RREQ) ns3::aodv::RreqHeader (RREQ ID 1 destination: ipv4 10.1.1.7 sequence number 0 source: ipv4 10.1.1.4 sequence number 1 flags: Gratuitous RREP 1 Destination only 0 Unknown sequence number 1)
+ 4.81888 /NodeList/16/DeviceList/0/$ns3::UanNetDevice/Phy/Tx ns3::UanHeaderCommon (UAN src=16 dest=255 type=0Protocol Number=1) ns3::Ipv4Header (tos 0x0 DSCP Default ECN Not-ECT ttl 17 id 0 protocol 17 offset (bytes) 0 flags [none] length: 52 10.1.1.17 > 10.1.1.255) ns3::UdpHeader (length: 32 654 > 654) ns3::aodv::TypeHeader (RREQ) ns3::aodv::RreqHeader (RREQ ID 1 destination: ipv4 10.1.1.7 sequence number 0 source: ipv4 10.1.1.4 sequence number 1 flags: Gratuitous RREP 1 Destination only 0 Unknown sequence number 1)
r 4.87913 /NodeList/3/DeviceList/0/$ns3::UanNetDevice/Phy/RxOk ns3::UanHeaderCommon (UAN src=22 dest=255 type=0Protocol Number=1) ns3::Ipv4Header (tos 0x0 DSCP Default ECN Not-ECT ttl 19 id 0 protocol 17 offset (bytes) 0 flags [none] length: 52 10.1.1.23 > 10.1.1.255) ns3::UdpHeader (length: 32 654 > 654) ns3::aodv::TypeHeader (RREQ) ns3::aodv::RreqHeader (RREQ ID 1 destination: ipv4 10.1.1.7 sequence number 0 source: ipv4 10.1.1.4 sequence number 1 flags: Gratuitous RREP 1 Destination only 0 Unknown sequence number 1)
r 4.88548 /NodeList/0/DeviceList/0/$ns3::UanNetDevice/Phy/RxOk ns3::UanHeaderCommon (UAN src=27 dest=255 type=0Protocol Number=1) ns3::Ipv4Header (tos 0x0 DSCP Default ECN Not-ECT ttl 18 id 0 protocol 17 offset (bytes) 0 flags [none] length: 52 10.1.1.28 > 10.1.1.255) ns3::UdpHeader (length: 32 654 > 654) ns3::aodv::TypeHeader (RREQ) ns3::aodv::RreqHeader (RREQ ID 1 destination: ipv4 10.1.1.7 sequence number 0 source: ipv4 10.1.1.4 sequence number 1 flags: Gratuitous RREP 1 Destination only 0 Unknown sequence number 1)
r 4.89621 /NodeList/22/DeviceList/0/$ns3::UanNetDevice/Phy/RxOk ns3::UanHeaderCommon (UAN src=5 dest=255 type=0Protocol Number=1) ns3::Ipv4Header (tos 0x0 DSCP Default ECN Not-ECT ttl 19 id 0 protocol 17 offset (bytes) 0 flags [none] length: 52 10.1.1.6 > 10.1.1.255) ns3::UdpHeader (length: 32 654 > 654) ns3::aodv::TypeHeader (RREQ) ns3::aodv::RreqHeader (RREQ ID 1 destination: ipv4 10.1.1.7 sequence number 0 source: ipv4 10.1.1.4 sequence number 1 flags: Gratuitous RREP 1 Destination only 0 Unknown sequence number 1)
r 4.89899 /NodeList/19/DeviceList/0/$ns3::UanNetDevice/Phy/RxOk ns3::UanHeaderCommon (UAN src=27 dest=255 type=0Protocol Number=1) ns3::Ipv4Header (tos 0x0 DSCP Default ECN Not-ECT ttl 18 id 0 protocol 17 offset (bytes) 0 flags [none] length: 52 10.1.1.28 > 10.1.1.255) ns3::UdpHeader (length: 32 654 > 654) ns3::aodv::TypeHeader (RREQ) ns3::aodv::RreqHeader (RREQ ID 1 destination: ipv4 10.1.1.7 sequence number 0 source: ipv4 10.1.1.4 sequence number 1 flags: Gratuitous RREP 1 Destination only 0 Unknown sequence number 1)
r 4.92007 /NodeList/2/DeviceList/0/$ns3::UanNetDevice/Phy/RxOk ns3::UanHeaderCommon (UAN src=27 dest=255 type=0Protocol Number=1) ns3::Ipv4Header (tos 0x0 DSCP Default ECN Not-ECT ttl 18 id 0 protocol 17 offset (bytes) 0 flags [none] length: 52 10.1.1.28 > 10.1.1.255) ns3::UdpHeader (length: 32 654 > 654) ns3::aodv::TypeHeader (RREQ) ns3::aodv::RreqHeader (RREQ ID 1 destination: ipv4 10.1.1.7 sequence number 0 source: ipv4 10.1.1.4 sequence number 1 flags: Gratuitous RREP 1 Destination only 0 Unknown sequence number 1)
+ 4.92807 /NodeList/2/DeviceList/0/$ns3::UanNetDevice/Phy/Tx ns3::UanHeaderCommon (UAN src=2 dest=255 type=0Protocol Number=1) ns3::Ipv4Header (tos 0x0 DSCP Default ECN Not-ECT ttl 17 id 0 protocol 17 offset (bytes) 0 flags [none] length: 52 10.1.1.3 > 10.1.1.255) ns3::UdpHeader (length: 32 654 > 654) ns3::aodv::TypeHeader (RREQ) ns3::aodv::RreqHeader (RREQ ID 1 destination: ipv4 10.1.1.7 sequence number 0 source: ipv4 10.1.1.4 sequence number 1 flags: Gratuitous RREP 1 Destination only 0 Unknown sequence number 1)
r 4.95066 /NodeList/9/DeviceList/0/$ns3::UanNetDevice/Phy/RxOk ns3::UanHeaderCommon (UAN src=20 dest=255 type=0Protocol Number=1) ns3::Ipv4Header (tos 0x0 DSCP Default ECN Not-ECT ttl 18 id 0 protocol 17 offset (bytes) 0 flags [none] length: 52 10.1.1.21 > 10.1.1.255) ns3::UdpHeader (length: 32 654 > 654) ns3::aodv::TypeHeader (RREQ) ns3::aodv::RreqHeader (RREQ ID 1 destination: ipv4 10.1.1.7 sequence number 0 source: ipv4 10.1.1.4 sequence number 1 flags: Gratuitous RREP 1 Destination only 0 Unknown sequence number 1)
r 4.9766 /NodeList/10/DeviceList/0/$ns3::UanNetDevice/Phy/RxOk ns3::UanHeaderCommon (UAN src=21 dest=255 type=0Protocol Number=1) ns3::Ipv4Header (tos 0x0 DSCP Default ECN Not-ECT ttl 18 id 0 protocol 17 offset (bytes) 0 flags [none] length: 52 10.1.1.22 > 10.1.1.255) ns3::UdpHeader (length: 32 654 > 654) ns3::aodv::TypeHeader (RREQ) ns3::aodv::RreqHeader (RREQ ID 1 destination: ipv4 10.1.1.7 sequence number 0 source: ipv4 10.1.1.4 sequence number 1 flags: Gratuitous RREP 1 Destination only 0 Unknown sequence number 1)
+ 4.9826 /NodeList/10/DeviceList/0/$ns3::UanNetDevice/Phy/Tx ns3::UanHeaderCommon (UAN src=10 dest=255 type=0Protocol Number=1) ns3::Ipv4Header (tos 0x0 DSCP Default ECN Not-ECT ttl 17 id 0 protocol 17 offset (bytes) 0 flags [none] length: 52 10.1.1.11 > 10.1.1.255) ns3::UdpHeader (length: 32 654 > 654) ns3::aodv::TypeHeader (RREQ) ns3::aodv::RreqHeader (RREQ ID 1 destination: ipv4 10.1.1.7 sequence number 0 source: ipv4 10.1.1.4 sequence number 1 flags: Gratuitous RREP 1 Destination only 0 Unknown sequence number 1)
r 5.00762 /NodeList/13/DeviceList/0/$ns3::UanNetDevice/Phy/RxOk ns3::UanHeaderCommon (UAN src=6 dest=3 type=0Protocol Number=1) ns3::Ipv4Header (tos 0x0 DSCP Default ECN Not-ECT ttl 1 id 0 protocol 17 offset (bytes) 0 flags [none] length: 48 10.1.1.7 > 10.1.1.4) ns3::UdpHeader (length: 28 654 > 654) ns3::aodv::TypeHeader (RREP) ns3::aodv::RrepHeader (destination: ipv4 10.1.1.7 sequence number 0 source ipv4 10.1.1.4 lifetime 2000000 acknowledgment required flag 0)
r 5.01813 /NodeList/23/DeviceList/0/$ns3::UanNetDevice/Phy/RxOk ns3::UanHeaderCommon (UAN src=14 dest=255 type=0Protocol Number=1) ns3::Ipv4Header (tos 0x0 DSCP Default ECN Not-ECT ttl 17 id 0 protocol 17 offset (bytes) 0 flags [none] length: 52 10.1.1.15 > 10.1.1.255) ns3::UdpHeader (length: 32 654 > 654) ns3::aodv::TypeHeader (RREQ) ns3::aodv::RreqHeader (RREQ ID 1 destination: ipv4 10.1.1.7 sequence number 0 source: ipv4 10.1.1.4 sequence number 1 flags: Gratuitous RREP 1 Destination only 0 Unknown sequence number 1)
r 5.0459 /NodeList/3/DeviceList/0/$ns3::UanNetDevice/Phy/RxOk ns3::UanHeaderCommon (UAN src=6 dest=3 type=0Protocol Number=1) ns3::Ipv4Header (tos 0x0 DSCP Default ECN Not-ECT ttl 1 id 0 protocol 17 offset (bytes) 0 flags [none] length: 48 10.1.1.7 > 10.1.1.4) ns3::UdpHeader (length: 28 654 > 654) ns3::aodv::TypeHeader (RREP) ns3::aodv::RrepHeader (destination: ipv4 10.1.1.7 sequence number 0 source ipv4 10.1.1.4 lifetime 2000000 acknowledgment required flag 0)
+ 5.0459 /NodeList/3/DeviceList/0/$ns3::UanNetDevice/Phy/Tx ns3::UanHeaderCommon (UAN src=3 dest=6 type=0Protocol Number=1) ns3::Ipv4Header (tos 0x0 DSCP Default ECN Not-ECT ttl 64 id 0 protocol 17 offset (bytes) 0 flags [none] length: 428 10.1.1.4 > 10.1.1.7) ns3::UdpHeader (length: 408 26 > 26) Payload (size=400)
r 5.06018 /NodeList/18/DeviceList/0/$ns3::UanNetDevice/Phy/RxOk ns3::UanHeaderCommon (UAN src=26 dest=255 type=0Protocol Number=1) ns3::Ipv4Header (tos 0x0 DSCP Default ECN Not-ECT ttl 18 id 0 protocol 17 offset (bytes) 0 flags [none] length: 52 10.1.1.27 > 10.1.1.255) ns3::UdpHeader (length: 32 654 > 654) ns3::aodv::TypeHeader (RREQ) ns3::aodv::RreqHeader (RREQ ID 1 destination: ipv4 10.1.1.7 sequence number 0 source: ipv4 10.1.1.4 sequence number 1 flags: Gratuitous RREP 1 Destination only 0 Unknown sequence number 1)
r 5.11535 /NodeList/18/DeviceList/0/$ns3::UanNetDevice/Phy/RxOk ns3::UanHeaderCommon (UAN src=24 dest=255 type=0Protocol Number=1) ns3::Ipv4Header (tos 0x0 DSCP Default ECN Not-ECT ttl 18 id 0 protocol 17 offset (bytes) 0 flags [none] length: 52 10.1.1.25 > 10.1.1.255) ns3::UdpHeader (length: 32 654 > 654) ns3::aodv::TypeHeader (RREQ) ns3::aodv::RreqHeader (RREQ ID 1 destination: ipv4 10.1.1.7 sequence number 0 source: ipv4 10.1.1.4 sequence number 1 flags: Gratuitous RREP 1 Destination only 0 Unknown sequence number 1)
r 5.12042 /NodeList/12/DeviceList/0/$ns3::UanNetDevice/Phy/RxOk ns3::UanHeaderCommon (UAN src=20 dest=255 type=0Protocol Number=1) ns3::Ipv4Header (tos 0x0 DSCP Default ECN Not-ECT ttl 18 id 0 protocol 17 offset (bytes) 0 flags [none] length: 52 10.1.1.21 > 10.1.1.255) ns3::UdpHeader (length: 32 654 > 654) ns3::aodv::TypeHeader (RREQ) ns3::aodv::RreqHeader (RREQ ID 1 destination: ipv4 10.1.1.7 sequence number 0 source: ipv4 10.1.1.4 sequence number 1 flags: Gratuitous RREP 1 Destination only 0 Unknown sequence number 1)