+ 1.01218 /NodeList/25/DeviceList/0/$ns3::UanNetDevice/Phy/Tx ns3::UanHeaderCommon (UAN src=25 dest=255 type=0Protocol Number=0) ns3::UanMacSFAMA::UanSFamaHeader (This is FAMA RTS packet) Payload (size=1)
+ 1.04572 /NodeList/27/DeviceList/0/$ns3::UanNetDevice/Phy/Tx ns3::UanHeaderCommon (UAN src=27 dest=255 type=0Protocol Number=9) ns3::UanMacSFAMA::UanSFamaHeader (This is FAMA RTS packet) Payload (size=1)
+ 1.05035 /NodeList/16/DeviceList/0/$ns3::UanNetDevice/Phy/Tx ns3::UanHeaderCommon (UAN src=16 dest=255 type=0Protocol Number=15) ns3::UanMacSFAMA::UanSFamaHeader (This is FAMA RTS packet) Payload (size=1)
+ 1.13003 /NodeList/0/DeviceList/0/$ns3::UanNetDevice/Phy/Tx ns3::UanHeaderCommon (UAN src=0 dest=255 type=0Protocol Number=5) ns3::UanMacSFAMA::UanSFamaHeader (This is FAMA RTS packet) Payload (size=1)
+ 1.24193 /NodeList/24/DeviceList/0/$ns3::UanNetDevice/Phy/Tx ns3::UanHeaderCommon (UAN src=24 dest=255 type=0Protocol Number=0) ns3::UanMacSFAMA::UanSFamaHeader (This is FAMA RTS packet) Payload (size=1)
r 1.25019 /NodeList/10/DeviceList/0/$ns3::UanNetDevice/Phy/RxOk ns3::UanHeaderCommon (UAN src=16 dest=255 type=0Protocol Number=15) ns3::UanMacSFAMA::UanSFamaHeader (This is FAMA RTS packet) Payload (size=1)
+ 1.31811 /NodeList/19/DeviceList/0/$ns3::UanNetDevice/Phy/Tx ns3::UanHeaderCommon (UAN src=19 dest=255 type=0Protocol Number=8) ns3::UanMacSFAMA::UanSFamaHeader (This is FAMA RTS packet) Payload (size=1)
+ 1.36561 /NodeList/5/DeviceList/0/$ns3::UanNetDevice/Phy/Tx ns3::UanHeaderCommon (UAN src=5 dest=255 type=0Protocol Number=12) ns3::UanMacSFAMA::UanSFamaHeader (This is FAMA RTS packet) Payload (size=1)
+ 1.39736 /NodeList/8/DeviceList/0/$ns3::UanNetDevice/Phy/Tx ns3::UanHeaderCommon (UAN src=8 dest=255 type=0Protocol Number=1) ns3::UanMacSFAMA::UanSFamaHeader (This is FAMA RTS packet) Payload (size=1)
+ 1.58543 /NodeList/26/DeviceList/0/$ns3::UanNetDevice/Phy/Tx ns3::UanHeaderCommon (UAN src=26 dest=255 type=0Protocol Number=6) ns3::UanMacSFAMA::UanSFamaHeader (This is FAMA RTS packet) Payload (size=1)
+ 1.59463 /NodeList/2/DeviceList/0/$ns3::UanNetDevice/Phy/Tx ns3::UanHeaderCommon (UAN src=2 dest=255 type=0Protocol Number=11) ns3::UanMacSFAMA::UanSFamaHeader (This is FAMA RTS packet) Payload (size=1)
+ 1.61968 /NodeList/21/DeviceList/0/$ns3::UanNetDevice/Phy/Tx ns3::UanHeaderCommon (UAN src=21 dest=255 type=0Protocol Number=4) ns3::UanMacSFAMA::UanSFamaHeader (This is FAMA RTS packet) Payload (size=1)
+ 1.62509 /NodeList/14/DeviceList/0/$ns3::UanNetDevice/Phy/Tx ns3::UanHeaderCommon (UAN src=14 dest=255 type=0Protocol Number=13) ns3::UanMacSFAMA::UanSFamaHeader (This is FAMA RTS packet) Payload (size=1)
r 1.6278 /NodeList/17/DeviceList/0/$ns3::UanNetDevice/Phy/RxOk ns3::UanHeaderCommon (UAN src=25 dest=255 type=0Protocol Number=0) ns3::UanMacSFAMA::UanSFamaHeader (This is FAMA RTS packet) Payload (size=1)
+ 1.66309 /NodeList/1/DeviceList/0/$ns3::UanNetDevice/Phy/Tx ns3::UanHeaderCommon (UAN src=1 dest=255 type=0Protocol Number=3) ns3::UanMacSFAMA::UanSFamaHeader (This is FAMA RTS packet) Payload (size=1)
+ 1.69418 /NodeList/13/DeviceList/0/$ns3::UanNetDevice/Phy/Tx ns3::UanHeaderCommon (UAN src=13 dest=255 type=0Protocol Number=9) ns3::UanMacSFAMA::UanSFamaHeader (This is FAMA RTS packet) Payload (size=1)
+ 1.69479 /NodeList/18/DeviceList/0/$ns3::UanNetDevice/Phy/Tx ns3::UanHeaderCommon (UAN src=18 dest=255 type=0Protocol Number=6) ns3::UanMacSFAMA::UanSFamaHeader (This is FAMA RTS packet) Payload (size=1)
+ 1.7039 /NodeList/23/DeviceList/0/$ns3::UanNetDevice/Phy/Tx ns3::UanHeaderCommon (UAN src=23 dest=255 type=0Protocol Number=15) ns3::UanMacSFAMA::UanSFamaHeader (This is FAMA RTS packet) Payload (size=1)
+ 1.70499 /NodeList/22/DeviceList/0/$ns3::UanNetDevice/Phy/Tx ns3::UanHeaderCommon (UAN src=22 dest=255 type=0Protocol Number=12) ns3::UanMacSFAMA::UanSFamaHeader (This is FAMA RTS packet) Payload (size=1)
+ 1.71139 /NodeList/4/DeviceList/0/$ns3::UanNetDevice/Phy/Tx ns3::UanHeaderCommon (UAN src=4 dest=255 type=0Protocol Number=1) ns3::UanMacSFAMA::UanSFamaHeader (This is FAMA RTS packet) Payload (size=1)
r 1.793 /NodeList/13/DeviceList/0/$ns3::UanNetDevice/Phy/RxOk ns3::UanHeaderCommon (UAN src=5 dest=255 type=0Protocol Number=12) ns3::UanMacSFAMA::UanSFamaHeader (This is FAMA RTS packet) Payload (size=1)
+ 1.80462 /NodeList/9/DeviceList/0/$ns3::UanNetDevice/Phy/Tx ns3::UanHeaderCommon (UAN src=9 dest=255 type=0Protocol Number=0) ns3::UanMacSFAMA::UanSFamaHeader (This is FAMA RTS packet) Payload (size=1)
+ 1.82784 /NodeList/11/DeviceList/0/$ns3::UanNetDevice/Phy/Tx ns3::UanHeaderCommon (UAN src=11 dest=255 type=0Protocol Number=3) ns3::UanMacSFAMA::UanSFamaHeader (This is FAMA RTS packet) Payload (size=1)
r 1.87584 /NodeList/21/DeviceList/0/$ns3::UanNetDevice/Phy/RxOk ns3::UanHeaderCommon (UAN src=16 dest=255 type=0Protocol Number=15) ns3::UanMacSFAMA::UanSFamaHeader (This is FAMA RTS packet) Payload (size=1)
+ 1.90368 /NodeList/20/DeviceList/0/$ns3::UanNetDevice/Phy/Tx ns3::UanHeaderCommon (UAN src=20 dest=255 type=0Protocol Number=11) ns3::UanMacSFAMA::UanSFamaHeader (This is FAMA RTS packet) Payload (size=1)
r 1.908 /NodeList/2/DeviceList/0/$ns3::UanNetDevice/Phy/RxOk ns3::UanHeaderCommon (UAN src=0 dest=255 type=0Protocol Number=5) ns3::UanMacSFAMA::UanSFamaHeader (This is FAMA RTS packet) Payload (size=1)
r 1.916 /NodeList/21/DeviceList/0/$ns3::UanNetDevice/Phy/RxOk ns3::UanHeaderCommon (UAN src=0 dest=255 type=0Protocol Number=5) ns3::UanMacSFAMA::UanSFamaHeader (This is FAMA RTS packet) Payload (size=1)
r 1.94782 /NodeList/0/DeviceList/0/$ns3::UanNetDevice/Phy/RxOk ns3::UanHeaderCommon (UAN src=27 dest=255 type=0Protocol Number=9) ns3::UanMacSFAMA::UanSFamaHeader (This is FAMA RTS packet) Payload (size=1)
+ 1.94984 /NodeList/12/DeviceList/0/$ns3::UanNetDevice/Phy/Tx ns3::UanHeaderCommon (UAN src=12 dest=255 type=0Protocol Number=6) ns3::UanMacSFAMA::UanSFamaHeader (This is FAMA RTS packet) Payload (size=1)
r 1.96132 /NodeList/19/DeviceList/0/$ns3::UanNetDevice/Phy/RxOk ns3::UanHeaderCommon (UAN src=27 dest=255 type=0Protocol Number=9) ns3::UanMacSFAMA::UanSFamaHeader (This is FAMA RTS packet) Payload (size=1)
+ 1.97032 /NodeList/15/DeviceList/0/$ns3::UanNetDevice/Phy/Tx ns3::UanHeaderCommon (UAN src=15 dest=255 type=0Protocol Number=0) ns3::UanMacSFAMA::UanSFamaHeader (This is FAMA RTS packet) Payload (size=1)
r 1.97677 /NodeList/19/DeviceList/0/$ns3::UanNetDevice/Phy/RxOk ns3::UanHeaderCommon (UAN src=0 dest=255 type=0Protocol Number=5) ns3::UanMacSFAMA::UanSFamaHeader (This is FAMA RTS packet) Payload (size=1)
+ 1.97677 /NodeList/7/DeviceList/0/$ns3::UanNetDevice/Phy/Tx ns3::UanHeaderCommon (UAN src=7 dest=255 type=0Protocol Number=14) ns3::UanMacSFAMA::UanSFamaHeader (This is FAMA RTS packet) Payload (size=1)
r 1.9824 /NodeList/2/DeviceList/0/$ns3::UanNetDevice/Phy/RxOk ns3::UanHeaderCommon (UAN src=27 dest=255 type=0Protocol Number=9) ns3::UanMacSFAMA::UanSFamaHeader (This is FAMA RTS packet) Payload (size=1)
+ 1.98319 /NodeList/6/DeviceList/0/$ns3::UanNetDevice/Phy/Tx ns3::UanHeaderCommon (UAN src=6 dest=255 type=0Protocol Number=14) ns3::UanMacSFAMA::UanSFamaHeader (This is FAMA RTS packet) Payload (size=1)
r 1.9865 /NodeList/0/DeviceList/0/$ns3::UanNetDevice/Phy/RxOk ns3::UanHeaderCommon (UAN src=16 dest=255 type=0Protocol Number=15) ns3::UanMacSFAMA::UanSFamaHeader (This is FAMA RTS packet) Payload (size=1)
+ 1.99021 /NodeList/3/DeviceList/0/$ns3::UanNetDevice/Phy/Tx ns3::UanHeaderCommon (UAN src=3 dest=255 type=0Protocol Number=8) ns3::UanMacSFAMA::UanSFamaHeader (This is FAMA RTS packet) Payload (size=1)
r 2.00954 /NodeList/20/DeviceList/0/$ns3::UanNetDevice/Phy/RxOk ns3::UanHeaderCommon (UAN src=8 dest=255 type=0Protocol Number=1) ns3::UanMacSFAMA::UanSFamaHeader (This is FAMA RTS packet) Payload (size=1)
r 2.03213 /NodeList/27/DeviceList/0/$ns3::UanNetDevice/Phy/RxOk ns3::UanHeaderCommon (UAN src=0 dest=255 type=0Protocol Number=5) ns3::UanMacSFAMA::UanSFamaHeader (This is FAMA RTS packet) Payload (size=1)
r 2.05413 /NodeList/19/DeviceList/0/$ns3::UanNetDevice/Phy/RxOk ns3::UanHeaderCommon (UAN src=24 dest=255 type=0Protocol Number=0) ns3::UanMacSFAMA::UanSFamaHeader (This is FAMA RTS packet) Payload (size=1)
r 2.06619 /NodeList/16/DeviceList/0/$ns3::UanNetDevice/Phy/RxOk ns3::UanHeaderCommon (UAN src=0 dest=255 type=0Protocol Number=5) ns3::UanMacSFAMA::UanSFamaHeader (This is FAMA RTS packet) Payload (size=1)
r 2.07071 /NodeList/2/DeviceList/0/$ns3::UanNetDevice/Phy/RxOk ns3::UanHeaderCommon (UAN src=16 dest=255 type=0Protocol Number=15) ns3::UanMacSFAMA::UanSFamaHeader (This is FAMA RTS packet) Payload (size=1)
r 2.08265 /NodeList/22/DeviceList/0/$ns3::UanNetDevice/Phy/RxOk ns3::UanHeaderCommon (UAN src=5 dest=255 type=0Protocol Number=12) ns3::UanMacSFAMA::UanSFamaHeader (This is FAMA RTS packet) Payload (size=1)
r 2.08587 /NodeList/18/DeviceList/0/$ns3::UanNetDevice/Phy/RxOk ns3::UanHeaderCommon (UAN src=0 dest=255 type=0Protocol Number=5) ns3::UanMacSFAMA::UanSFamaHeader (This is FAMA RTS packet) Payload (size=1)
r 2.11512 /NodeList/23/DeviceList/0/$ns3::UanNetDevice/Phy/RxOk ns3::UanHeaderCommon (UAN src=14 dest=255 type=0Protocol Number=13) ns3::UanMacSFAMA::UanSFamaHeader (This is FAMA RTS packet) Payload (size=1)
r 2.12157 /NodeList/5/DeviceList/0/$ns3::UanNetDevice/Phy/RxOk ns3::UanHeaderCommon (UAN src=13 dest=255 type=0Protocol Number=9) ns3::UanMacSFAMA::UanSFamaHeader (This is FAMA RTS packet) Payload (size=1)
r 2.12595 /NodeList/4/DeviceList/0/$ns3::UanNetDevice/Phy/RxOk ns3::UanHeaderCommon (UAN src=1 dest=255 type=0Protocol Number=3) ns3::UanMacSFAMA::UanSFamaHeader (This is FAMA RTS packet) Payload (size=1)
r 2.13031 /NodeList/24/DeviceList/0/$ns3::UanNetDevice/Phy/RxOk ns3::UanHeaderCommon (UAN src=19 dest=255 type=0Protocol Number=8) ns3::UanMacSFAMA::UanSFamaHeader (This is FAMA RTS packet) Payload (size=1)
r 2.16484 /NodeList/0/DeviceList/0/$ns3::UanNetDevice/Phy/RxOk ns3::UanHeaderCommon (UAN src=19 dest=255 type=0Protocol Number=8) ns3::UanMacSFAMA::UanSFamaHeader (This is FAMA RTS packet) Payload (size=1)
r 2.17425 /NodeList/1/DeviceList/0/$ns3::UanNetDevice/Phy/RxOk ns3::UanHeaderCommon (UAN src=4 dest=255 type=0Protocol Number=1) ns3::UanMacSFAMA::UanSFamaHeader (This is FAMA RTS packet) Payload (size=1)
r 2.19393 /NodeList/14/DeviceList/0/$ns3::UanNetDevice/Phy/RxOk ns3::UanHeaderCommon (UAN src=23 dest=255 type=0Protocol Number=15) ns3::UanMacSFAMA::UanSFamaHeader (This is FAMA RTS packet) Payload (size=1)
r 2.21009 /NodeList/18/DeviceList/0/$ns3::UanNetDevice/Phy/RxOk ns3::UanHeaderCommon (UAN src=19 dest=255 type=0Protocol Number=8) ns3::UanMacSFAMA::UanSFamaHeader (This is FAMA RTS packet) Payload (size=1)
r 2.21875 /NodeList/5/DeviceList/0/$ns3::UanNetDevice/Phy/RxOk ns3::UanHeaderCommon (UAN src=25 dest=255 type=0Protocol Number=0) ns3::UanMacSFAMA::UanSFamaHeader (This is FAMA RTS packet) Payload (size=1)
r 2.22162 /NodeList/7/DeviceList/0/$ns3::UanNetDevice/Phy/RxOk ns3::UanHeaderCommon (UAN src=15 dest=255 type=0Protocol Number=0) ns3::UanMacSFAMA::UanSFamaHeader (This is FAMA RTS packet) Payload (size=1)
r 2.22807 /NodeList/15/DeviceList/0/$ns3::UanNetDevice/Phy/RxOk ns3::UanHeaderCommon (UAN src=7 dest=255 type=0Protocol Number=14) ns3::UanMacSFAMA::UanSFamaHeader (This is FAMA RTS packet) Payload (size=1)
r 2.22816 /NodeList/9/DeviceList/0/$ns3::UanNetDevice/Phy/RxOk ns3::UanHeaderCommon (UAN src=8 dest=255 type=0Protocol Number=1) ns3::UanMacSFAMA::UanSFamaHeader (This is FAMA RTS packet) Payload (size=1)
r 2.23371 /NodeList/27/DeviceList/0/$ns3::UanNetDevice/Phy/RxOk ns3::UanHeaderCommon (UAN src=19 dest=255 type=0Protocol Number=8) ns3::UanMacSFAMA::UanSFamaHeader (This is FAMA RTS packet) Payload (size=1)
r 2.24746 /NodeList/22/DeviceList/0/$ns3::UanNetDevice/Phy/RxOk ns3::UanHeaderCommon (UAN src=13 dest=255 type=0Protocol Number=9) ns3::UanMacSFAMA::UanSFamaHeader (This is FAMA RTS packet) Payload (size=1)
r 2.25181 /NodeList/10/DeviceList/0/$ns3::UanNetDevice/Phy/RxOk ns3::UanHeaderCommon (UAN src=0 dest=255 type=0Protocol Number=5) ns3::UanMacSFAMA::UanSFamaHeader (This is FAMA RTS packet) Payload (size=1)
r 2.25827 /NodeList/13/DeviceList/0/$ns3::UanNetDevice/Phy/RxOk ns3::UanHeaderCommon (UAN src=22 dest=255 type=0Protocol Number=12) ns3::UanMacSFAMA::UanSFamaHeader (This is FAMA RTS packet) Payload (size=1)
r 2.31201 /NodeList/11/DeviceList/0/$ns3::UanNetDevice/Phy/RxOk ns3::UanHeaderCommon (UAN src=14 dest=255 type=0Protocol Number=13) ns3::UanMacSFAMA::UanSFamaHeader (This is FAMA RTS packet) Payload (size=1)
r 2.31228 /NodeList/9/DeviceList/0/$ns3::UanNetDevice/Phy/RxOk ns3::UanHeaderCommon (UAN src=26 dest=255 type=0Protocol Number=6) ns3::UanMacSFAMA::UanSFamaHeader (This is FAMA RTS packet) Payload (size=1)
r 2.3584 /NodeList/6/DeviceList/0/$ns3::UanNetDevice/Phy/RxOk ns3::UanHeaderCommon (UAN src=22 dest=255 type=0Protocol Number=12) ns3::UanMacSFAMA::UanSFamaHeader (This is FAMA RTS packet) Payload (size=1)
r 2.35993 /NodeList/3/DeviceList/0/$ns3::UanNetDevice/Phy/RxOk ns3::UanHeaderCommon (UAN src=13 dest=255 type=0Protocol Number=9) ns3::UanMacSFAMA::UanSFamaHeader (This is FAMA RTS packet) Payload (size=1)
r 2.37075 /NodeList/11/DeviceList/0/$ns3::UanNetDevice/Phy/RxOk ns3::UanHeaderCommon (UAN src=23 dest=255 type=0Protocol Number=15) ns3::UanMacSFAMA::UanSFamaHeader (This is FAMA RTS packet) Payload (size=1)
r 2.3726 /NodeList/0/DeviceList/0/$ns3::UanNetDevice/Phy/RxOk ns3::UanHeaderCommon (UAN src=2 dest=255 type=0Protocol Number=11) ns3::UanMacSFAMA::UanSFamaHeader (This is FAMA RTS packet) Payload (size=1)
r 2.37889 /NodeList/18/DeviceList/0/$ns3::UanNetDevice/Phy/RxOk ns3::UanHeaderCommon (UAN src=24 dest=255 type=0Protocol Number=0) ns3::UanMacSFAMA::UanSFamaHeader (This is FAMA RTS packet) Payload (size=1)
r 2.40564 /NodeList/0/DeviceList/0/$ns3::UanNetDevice/Phy/RxOk ns3::UanHeaderCommon (UAN src=21 dest=255 type=0Protocol Number=4) ns3::UanMacSFAMA::UanSFamaHeader (This is FAMA RTS packet) Payload (size=1)
r 2.42204 /NodeList/5/DeviceList/0/$ns3::UanNetDevice/Phy/RxOk ns3::UanHeaderCommon (UAN src=22 dest=255 type=0Protocol Number=12) ns3::UanMacSFAMA::UanSFamaHeader (This is FAMA RTS packet) Payload (size=1)
r 2.43082 /NodeList/18/DeviceList/0/$ns3::UanNetDevice/Phy/RxOk ns3::UanHeaderCommon (UAN src=21 dest=255 type=0Protocol Number=4) ns3::UanMacSFAMA::UanSFamaHeader (This is FAMA RTS packet) Payload (size=1)
r 2.44517 /NodeList/16/DeviceList/0/$ns3::UanNetDevice/Phy/RxOk ns3::UanHeaderCommon (UAN src=21 dest=255 type=0Protocol Number=4) ns3::UanMacSFAMA::UanSFamaHeader (This is FAMA RTS packet) Payload (size=1)
r 2.45143 /NodeList/3/DeviceList/0/$ns3::UanNetDevice/Phy/RxOk ns3::UanHeaderCommon (UAN src=5 dest=255 type=0Protocol Number=12) ns3::UanMacSFAMA::UanSFamaHeader (This is FAMA RTS packet) Payload (size=1)
r 2.49469 /NodeList/23/DeviceList/0/$ns3::UanNetDevice/Phy/RxOk ns3::UanHeaderCommon (UAN src=11 dest=255 type=0Protocol Number=3) ns3::UanMacSFAMA::UanSFamaHeader (This is FAMA RTS packet) Payload (size=1)
r 2.50593 /NodeList/21/DeviceList/0/$ns3::UanNetDevice/Phy/RxOk ns3::UanHeaderCommon (UAN src=18 dest=255 type=0Protocol Number=6) ns3::UanMacSFAMA::UanSFamaHeader (This is FAMA RTS packet) Payload (size=1)
r 2.51476 /NodeList/14/DeviceList/0/$ns3::UanNetDevice/Phy/RxOk ns3::UanHeaderCommon (UAN src=11 dest=255 type=0Protocol Number=3) ns3::UanMacSFAMA::UanSFamaHeader (This is FAMA RTS packet) Payload (size=1)
r 2.51586 /NodeList/8/DeviceList/0/$ns3::UanNetDevice/Phy/RxOk ns3::UanHeaderCommon (UAN src=20 dest=255 type=0Protocol Number=11) ns3::UanMacSFAMA::UanSFamaHeader (This is FAMA RTS packet) Payload (size=1)
r 2.53131 /NodeList/27/DeviceList/0/$ns3::UanNetDevice/Phy/RxOk ns3::UanHeaderCommon (UAN src=2 dest=255 type=0Protocol Number=11) ns3::UanMacSFAMA::UanSFamaHeader (This is FAMA RTS packet) Payload (size=1)
r 2.53147 /NodeList/26/DeviceList/0/$ns3::UanNetDevice/Phy/RxOk ns3::UanHeaderCommon (UAN src=9 dest=255 type=0Protocol Number=0) ns3::UanMacSFAMA::UanSFamaHeader (This is FAMA RTS packet) Payload (size=1)
r 2.54527 /NodeList/15/DeviceList/0/$ns3::UanNetDevice/Phy/RxOk ns3::UanHeaderCommon (UAN src=14 dest=255 type=0Protocol Number=13) ns3::UanMacSFAMA::UanSFamaHeader (This is FAMA RTS packet) Payload (size=1)
r 2.55653 /NodeList/6/DeviceList/0/$ns3::UanNetDevice/Phy/RxOk ns3::UanHeaderCommon (UAN src=5 dest=255 type=0Protocol Number=12) ns3::UanMacSFAMA::UanSFamaHeader (This is FAMA RTS packet) Payload (size=1)
r 2.57218 /NodeList/25/DeviceList/0/$ns3::UanNetDevice/Phy/RxOk ns3::UanHeaderCommon (UAN src=5 dest=255 type=0Protocol Number=12) ns3::UanMacSFAMA::UanSFamaHeader (This is FAMA RTS packet) Payload (size=1)
r 2.57423 /NodeList/9/DeviceList/0/$ns3::UanNetDevice/Phy/RxOk ns3::UanHeaderCommon (UAN src=1 dest=255 type=0Protocol Number=3) ns3::UanMacSFAMA::UanSFamaHeader (This is FAMA RTS packet) Payload (size=1)
r 2.58676 /NodeList/19/DeviceList/0/$ns3::UanNetDevice/Phy/RxOk ns3::UanHeaderCommon (UAN src=18 dest=255 type=0Protocol Number=6) ns3::UanMacSFAMA::UanSFamaHeader (This is FAMA RTS packet) Payload (size=1)
r 2.59589 /NodeList/3/DeviceList/0/$ns3::UanNetDevice/Phy/RxOk ns3::UanHeaderCommon (UAN src=22 dest=255 type=0Protocol Number=12) ns3::UanMacSFAMA::UanSFamaHeader (This is FAMA RTS packet) Payload (size=1)
r 2.60989 /NodeList/10/DeviceList/0/$ns3::UanNetDevice/Phy/RxOk ns3::UanHeaderCommon (UAN src=21 dest=255 type=0Protocol Number=4) ns3::UanMacSFAMA::UanSFamaHeader (This is FAMA RTS packet) Payload (size=1)
r 2.61499 /NodeList/16/DeviceList/0/$ns3::UanNetDevice/Phy/RxOk ns3::UanHeaderCommon (UAN src=2 dest=255 type=0Protocol Number=11) ns3::UanMacSFAMA::UanSFamaHeader (This is FAMA RTS packet) Payload (size=1)
r 2.62895 /NodeList/21/DeviceList/0/$ns3::UanNetDevice/Phy/RxOk ns3::UanHeaderCommon (UAN src=19 dest=255 type=0Protocol Number=8) ns3::UanMacSFAMA::UanSFamaHeader (This is FAMA RTS packet) Payload (size=1)
r 2.63541 /NodeList/8/DeviceList/0/$ns3::UanNetDevice/Phy/RxOk ns3::UanHeaderCommon (UAN src=9 dest=255 type=0Protocol Number=0) ns3::UanMacSFAMA::UanSFamaHeader (This is FAMA RTS packet) Payload (size=1)
r 2.6366 /NodeList/22/DeviceList/0/$ns3::UanNetDevice/Phy/RxOk ns3::UanHeaderCommon (UAN src=6 dest=255 type=0Protocol Number=14) ns3::UanMacSFAMA::UanSFamaHeader (This is FAMA RTS packet) Payload (size=1)
r 2.63685 /NodeList/6/DeviceList/0/$ns3::UanNetDevice/Phy/RxOk ns3::UanHeaderCommon (UAN src=13 dest=255 type=0Protocol Number=9) ns3::UanMacSFAMA::UanSFamaHeader (This is FAMA RTS packet) Payload (size=1)
r 2.64526 /NodeList/7/DeviceList/0/$ns3::UanNetDevice/Phy/RxOk ns3::UanHeaderCommon (UAN src=14 dest=255 type=0Protocol Number=13) ns3::UanMacSFAMA::UanSFamaHeader (This is FAMA RTS packet) Payload (size=1)
r 2.65062 /NodeList/0/DeviceList/0/$ns3::UanNetDevice/Phy/RxOk ns3::UanHeaderCommon (UAN src=18 dest=255 type=0Protocol Number=6) ns3::UanMacSFAMA::UanSFamaHeader (This is FAMA RTS packet) Payload (size=1)
r 2.65596 /NodeList/13/DeviceList/0/$ns3::UanNetDevice/Phy/RxOk ns3::UanHeaderCommon (UAN src=3 dest=255 type=0Protocol Number=8) ns3::UanMacSFAMA::UanSFamaHeader (This is FAMA RTS packet) Payload (size=1)
r 2.65821 /NodeList/18/DeviceList/0/$ns3::UanNetDevice/Phy/RxOk ns3::UanHeaderCommon (UAN src=26 dest=255 type=0Protocol Number=6) ns3::UanMacSFAMA::UanSFamaHeader (This is FAMA RTS packet) Payload (size=1)
r 2.67264 /NodeList/23/DeviceList/0/$ns3::UanNetDevice/Phy/RxOk ns3::UanHeaderCommon (UAN src=8 dest=255 type=0Protocol Number=1) ns3::UanMacSFAMA::UanSFamaHeader (This is FAMA RTS packet) Payload (size=1)
r 2.70218 /NodeList/1/DeviceList/0/$ns3::UanNetDevice/Phy/RxOk ns3::UanHeaderCommon (UAN src=26 dest=255 type=0Protocol Number=6) ns3::UanMacSFAMA::UanSFamaHeader (This is FAMA RTS packet) Payload (size=1)
r 2.70672 /NodeList/10/DeviceList/0/$ns3::UanNetDevice/Phy/RxOk ns3::UanHeaderCommon (UAN src=2 dest=255 type=0Protocol Number=11) ns3::UanMacSFAMA::UanSFamaHeader (This is FAMA RTS packet) Payload (size=1)
r 2.71576 /NodeList/1/DeviceList/0/$ns3::UanNetDevice/Phy/RxOk ns3::UanHeaderCommon (UAN src=9 dest=255 type=0Protocol Number=0) ns3::UanMacSFAMA::UanSFamaHeader (This is FAMA RTS packet) Payload (size=1)
r 2.73022 /NodeList/6/DeviceList/0/$ns3::UanNetDevice/Phy/RxOk ns3::UanHeaderCommon (UAN src=2 dest=255 type=0Protocol Number=11) ns3::UanMacSFAMA::UanSFamaHeader (This is FAMA RTS packet) Payload (size=1)
r 2.76757 /NodeList/26/DeviceList/0/$ns3::UanNetDevice/Phy/RxOk ns3::UanHeaderCommon (UAN src=18 dest=255 type=0Protocol Number=6) ns3::UanMacSFAMA::UanSFamaHeader (This is FAMA RTS packet) Payload (size=1)
r 2.77027 /NodeList/1/DeviceList/0/$ns3::UanNetDevice/Phy/RxOk ns3::UanHeaderCommon (UAN src=21 dest=255 type=0Protocol Number=4) ns3::UanMacSFAMA::UanSFamaHeader (This is FAMA RTS packet) Payload (size=1)
r 2.77087 /NodeList/20/DeviceList/0/$ns3::UanNetDevice/Phy/RxOk ns3::UanHeaderCommon (UAN src=9 dest=255 type=0Protocol Number=0) ns3::UanMacSFAMA::UanSFamaHeader (This is FAMA RTS packet) Payload (size=1)
r 2.79334 /NodeList/26/DeviceList/0/$ns3::UanNetDevice/Phy/RxOk ns3::UanHeaderCommon (UAN src=8 dest=255 type=0Protocol Number=1) ns3::UanMacSFAMA::UanSFamaHeader (This is FAMA RTS packet) Payload (size=1)
r 2.81368 /NodeList/21/DeviceList/0/$ns3::UanNetDevice/Phy/RxOk ns3::UanHeaderCommon (UAN src=1 dest=255 type=0Protocol Number=3) ns3::UanMacSFAMA::UanSFamaHeader (This is FAMA RTS packet) Payload (size=1)
r 2.83175 /NodeList/24/DeviceList/0/$ns3::UanNetDevice/Phy/RxOk ns3::UanHeaderCommon (UAN src=18 dest=255 type=0Protocol Number=6) ns3::UanMacSFAMA::UanSFamaHeader (This is FAMA RTS packet) Payload (size=1)
r 2.85385 /NodeList/18/DeviceList/0/$ns3::UanNetDevice/Phy/RxOk ns3::UanHeaderCommon (UAN src=1 dest=255 type=0Protocol Number=3) ns3::UanMacSFAMA::UanSFamaHeader (This is FAMA RTS packet) Payload (size=1)
r 2.86399 /NodeList/22/DeviceList/0/$ns3::UanNetDevice/Phy/RxOk ns3::UanHeaderCommon (UAN src=2 dest=255 type=0Protocol Number=11) ns3::UanMacSFAMA::UanSFamaHeader (This is FAMA RTS packet) Payload (size=1)
r 2.86993 /NodeList/9/DeviceList/0/$ns3::UanNetDevice/Phy/RxOk ns3::UanHeaderCommon (UAN src=20 dest=255 type=0Protocol Number=11) ns3::UanMacSFAMA::UanSFamaHeader (This is FAMA RTS packet) Payload (size=1)
r 2.88111 /NodeList/22/DeviceList/0/$ns3::UanNetDevice/Phy/RxOk ns3::UanHeaderCommon (UAN src=3 dest=255 type=0Protocol Number=8) ns3::UanMacSFAMA::UanSFamaHeader (This is FAMA RTS packet) Payload (size=1)
r 2.88284 /NodeList/9/DeviceList/0/$ns3::UanNetDevice/Phy/RxOk ns3::UanHeaderCommon (UAN src=4 dest=255 type=0Protocol Number=1) ns3::UanMacSFAMA::UanSFamaHeader (This is FAMA RTS packet) Payload (size=1)
r 2.88555 /NodeList/1/DeviceList/0/$ns3::UanNetDevice/Phy/RxOk ns3::UanHeaderCommon (UAN src=18 dest=255 type=0Protocol Number=6) ns3::UanMacSFAMA::UanSFamaHeader (This is FAMA RTS packet) Payload (size=1)
r 2.8905 /NodeList/14/DeviceList/0/$ns3::UanNetDevice/Phy/RxOk ns3::UanHeaderCommon (UAN src=15 dest=255 type=0Protocol Number=0) ns3::UanMacSFAMA::UanSFamaHeader (This is FAMA RTS packet) Payload (size=1)
r 2.92586 /NodeList/13/DeviceList/0/$ns3::UanNetDevice/Phy/RxOk ns3::UanHeaderCommon (UAN src=6 dest=255 type=0Protocol Number=14) ns3::UanMacSFAMA::UanSFamaHeader (This is FAMA RTS packet) Payload (size=1)
r 2.93052 /NodeList/19/DeviceList/0/$ns3::UanNetDevice/Phy/RxOk ns3::UanHeaderCommon (UAN src=21 dest=255 type=0Protocol Number=4) ns3::UanMacSFAMA::UanSFamaHeader (This is FAMA RTS packet) Payload (size=1)
r 2.9533 /NodeList/21/DeviceList/0/$ns3::UanNetDevice/Phy/RxOk ns3::UanHeaderCommon (UAN src=2 dest=255 type=0Protocol Number=11) ns3::UanMacSFAMA::UanSFamaHeader (This is FAMA RTS packet) Payload (size=1)
r 2.96414 /NodeList/3/DeviceList/0/$ns3::UanNetDevice/Phy/RxOk ns3::UanHeaderCommon (UAN src=6 dest=255 type=0Protocol Number=14) ns3::UanMacSFAMA::UanSFamaHeader (This is FAMA RTS packet) Payload (size=1)
r 2.97116 /NodeList/6/DeviceList/0/$ns3::UanNetDevice/Phy/RxOk ns3::UanHeaderCommon (UAN src=3 dest=255 type=0Protocol Number=8) ns3::UanMacSFAMA::UanSFamaHeader (This is FAMA RTS packet) Payload (size=1)
r 2.97606 /NodeList/4/DeviceList/0/$ns3::UanNetDevice/Phy/RxOk ns3::UanHeaderCommon (UAN src=9 dest=255 type=0Protocol Number=0) ns3::UanMacSFAMA::UanSFamaHeader (This is FAMA RTS packet) Payload (size=1)
r 2.99694 /NodeList/14/DeviceList/0/$ns3::UanNetDevice/Phy/RxOk ns3::UanHeaderCommon (UAN src=7 dest=255 type=0Protocol Number=14) ns3::UanMacSFAMA::UanSFamaHeader (This is FAMA RTS packet) Payload (size=1)
r 3.00747 /NodeList/15/DeviceList/0/$ns3::UanNetDevice/Phy/RxOk ns3::UanHeaderCommon (UAN src=23 dest=255 type=0Protocol Number=15) ns3::UanMacSFAMA::UanSFamaHeader (This is FAMA RTS packet) Payload (size=1)
r 3.03969 /NodeList/12/DeviceList/0/$ns3::UanNetDevice/Phy/RxOk ns3::UanHeaderCommon (UAN src=20 dest=255 type=0Protocol Number=11) ns3::UanMacSFAMA::UanSFamaHeader (This is FAMA RTS packet) Payload (size=1)
r 3.07603 /NodeList/5/DeviceList/0/$ns3::UanNetDevice/Phy/RxOk ns3::UanHeaderCommon (UAN src=3 dest=255 type=0Protocol Number=8) ns3::UanMacSFAMA::UanSFamaHeader (This is FAMA RTS packet) Payload (size=1)
r 3.08586 /NodeList/20/DeviceList/0/$ns3::UanNetDevice/Phy/RxOk ns3::UanHeaderCommon (UAN src=12 dest=255 type=0Protocol Number=6) ns3::UanMacSFAMA::UanSFamaHeader (This is FAMA RTS packet) Payload (size=1)
r 3.11879 /NodeList/2/DeviceList/0/$ns3::UanNetDevice/Phy/RxOk ns3::UanHeaderCommon (UAN src=6 dest=255 type=0Protocol Number=14) ns3::UanMacSFAMA::UanSFamaHeader (This is FAMA RTS packet) Payload (size=1)
r 3.17411 /NodeList/5/DeviceList/0/$ns3::UanNetDevice/Phy/RxOk ns3::UanHeaderCommon (UAN src=6 dest=255 type=0Protocol Number=14) ns3::UanMacSFAMA::UanSFamaHeader (This is FAMA RTS packet) Payload (size=1)
r 3.27389 /NodeList/23/DeviceList/0/$ns3::UanNetDevice/Phy/RxOk ns3::UanHeaderCommon (UAN src=15 dest=255 type=0Protocol Number=0) ns3::UanMacSFAMA::UanSFamaHeader (This is FAMA RTS packet) Payload (size=1)
+ 3.63983 /NodeList/17/DeviceList/0/$ns3::UanNetDevice/Phy/Tx ns3::UanHeaderCommon (UAN src=17 dest=255 type=0Protocol Number=10) ns3::UanMacSFAMA::UanSFamaHeader (This is FAMA RTS packet) Payload (size=1)
r 4.25546 /NodeList/25/DeviceList/0/$ns3::UanNetDevice/Phy/RxOk ns3::UanHeaderCommon (UAN src=17 dest=255 type=0Protocol Number=10) ns3::UanMacSFAMA::UanSFamaHeader (This is FAMA RTS packet) Payload (size=1)
+ 5.57253 /NodeList/10/DeviceList/0/$ns3::UanNetDevice/Phy/Tx ns3::UanHeaderCommon (UAN src=10 dest=255 type=0Protocol Number=1) ns3::UanMacSFAMA::UanSFamaHeader (This is FAMA RTS packet) Payload (size=1)
r 5.77237 /NodeList/16/DeviceList/0/$ns3::UanNetDevice/Phy/RxOk ns3::UanHeaderCommon (UAN src=10 dest=255 type=0Protocol Number=1) ns3::UanMacSFAMA::UanSFamaHeader (This is FAMA RTS packet) Payload (size=1)
r 6.56275 /NodeList/21/DeviceList/0/$ns3::UanNetDevice/Phy/RxOk ns3::UanHeaderCommon (UAN src=10 dest=255 type=0Protocol Number=1) ns3::UanMacSFAMA::UanSFamaHeader (This is FAMA RTS packet) Payload (size=1)
r 6.68463 /NodeList/2/DeviceList/0/$ns3::UanNetDevice/Phy/RxOk ns3::UanHeaderCommon (UAN src=10 dest=255 type=0Protocol Number=1) ns3::UanMacSFAMA::UanSFamaHeader (This is FAMA RTS packet) Payload (size=1)
r 6.6943 /NodeList/0/DeviceList/0/$ns3::UanNetDevice/Phy/RxOk ns3::UanHeaderCommon (UAN src=10 dest=255 type=0Protocol Number=1) ns3::UanMacSFAMA::UanSFamaHeader (This is FAMA RTS packet) Payload (size=1)
+ 6.80462 /NodeList/9/DeviceList/0/$ns3::UanNetDevice/Phy/Tx ns3::UanHeaderCommon (UAN src=9 dest=255 type=0Protocol Number=2) ns3::UanMacSFAMA::UanSFamaHeader (This is FAMA RTS packet)
+ 6.90368 /NodeList/20/DeviceList/0/$ns3::UanNetDevice/Phy/Tx ns3::UanHeaderCommon (UAN src=20 dest=255 type=0Protocol Number=6) ns3::UanMacSFAMA::UanSFamaHeader (This is FAMA RTS packet)
+ 7.04572 /NodeList/27/DeviceList/0/$ns3::UanNetDevice/Phy/Tx ns3::UanHeaderCommon (UAN src=27 dest=255 type=0Protocol Number=6) ns3::UanMacSFAMA::UanSFamaHeader (This is FAMA RTS packet)
+ 7.39736 /NodeList/8/DeviceList/0/$ns3::UanNetDevice/Phy/Tx ns3::UanHeaderCommon (UAN src=8 dest=255 type=0Protocol Number=3) ns3::UanMacSFAMA::UanSFamaHeader (This is FAMA RTS packet)
r 7.51503 /NodeList/8/DeviceList/0/$ns3::UanNetDevice/Phy/RxOk ns3::UanHeaderCommon (UAN src=20 dest=255 type=0Protocol Number=6) ns3::UanMacSFAMA::UanSFamaHeader (This is FAMA RTS packet)
r 7.53064 /NodeList/26/DeviceList/0/$ns3::UanNetDevice/Phy/RxOk ns3::UanHeaderCommon (UAN src=9 dest=255 type=0Protocol Number=2) ns3::UanMacSFAMA::UanSFamaHeader (This is FAMA RTS packet)
r 7.63458 /NodeList/8/DeviceList/0/$ns3::UanNetDevice/Phy/RxOk ns3::UanHeaderCommon (UAN src=9 dest=255 type=0Protocol Number=2) ns3::UanMacSFAMA::UanSFamaHeader (This is FAMA RTS packet)
r 7.71492 /NodeList/1/DeviceList/0/$ns3::UanNetDevice/Phy/RxOk ns3::UanHeaderCommon (UAN src=9 dest=255 type=0Protocol Number=2) ns3::UanMacSFAMA::UanSFamaHeader (This is FAMA RTS packet)
r 7.77004 /NodeList/20/DeviceList/0/$ns3::UanNetDevice/Phy/RxOk ns3::UanHeaderCommon (UAN src=9 dest=255 type=0Protocol Number=2) ns3::UanMacSFAMA::UanSFamaHeader (This is FAMA RTS packet)
r 7.8691 /NodeList/9/DeviceList/0/$ns3::UanNetDevice/Phy/RxOk ns3::UanHeaderCommon (UAN src=20 dest=255 type=0Protocol Number=6) ns3::UanMacSFAMA::UanSFamaHeader (This is FAMA RTS packet)
r 7.94699 /NodeList/0/DeviceList/0/$ns3::UanNetDevice/Phy/RxOk ns3::UanHeaderCommon (UAN src=27 dest=255 type=0Protocol Number=6) ns3::UanMacSFAMA::UanSFamaHeader (This is FAMA RTS packet)
r 7.96049 /NodeList/19/DeviceList/0/$ns3::UanNetDevice/Phy/RxOk ns3::UanHeaderCommon (UAN src=27 dest=255 type=0Protocol Number=6) ns3::UanMacSFAMA::UanSFamaHeader (This is FAMA RTS packet)
r 7.97523 /NodeList/4/DeviceList/0/$ns3::UanNetDevice/Phy/RxOk ns3::UanHeaderCommon (UAN src=9 dest=255 type=0Protocol Number=2) ns3::UanMacSFAMA::UanSFamaHeader (This is FAMA RTS packet)